/*--------------------------------*- C++ -*----------------------------------*\
| =========                 |                                                 |
| \\      /  F ield         | OpenFOAM: The Open Source CFD Toolbox           |
|  \\    /   O peration     | Version:  v1906                                 |
|   \\  /    A nd           | Web:      www.OpenFOAM.com                      |
|    \\/     M anipulation  |                                                 |
\*---------------------------------------------------------------------------*/
FoamFile
{
    version     2.0;
    format      ascii;
    class       scalarField;
    location    "2.83/lagrangian/coalCloud1";
    object      age;
}
// * * * * * * * * * * * * * * * * * * * * * * * * * * * * * * * * * * * * * //


53638
(
2.61482
2.617
2.61953
2.61486
2.61856
2.6189
2.61092
2.61972
2.62
2.61751
2.6191
2.6147
2.62354
2.61772
2.61603
2.60825
2.61753
2.61916
2.61933
2.60513
2.62122
2.61546
2.61652
2.62383
2.62016
2.62211
2.61699
2.62267
2.61327
2.61803
2.60974
2.62229
2.61162
2.61123
2.61677
2.62277
2.62157
2.60984
2.61973
2.61641
2.61115
2.62098
2.61922
2.62037
2.61529
2.61519
2.61939
2.61875
2.61774
2.62064
2.61472
2.61795
2.61761
2.62335
2.62002
2.61324
2.61788
2.61827
2.61519
2.6163
2.61592
2.61571
2.61552
2.61319
2.62166
2.61571
2.612
2.60584
2.61565
2.60685
2.6053
2.604
2.61229
2.61214
2.59081
2.60062
2.61091
2.58666
2.61123
2.59657
2.60659
2.6091
2.60804
2.58908
2.60599
2.58745
2.61011
2.6163
2.60304
2.58508
2.59631
2.58867
2.58877
2.58262
2.58452
2.58088
2.58671
2.57906
2.5814
2.59126
2.59091
2.6146
2.58747
2.58478
2.58102
2.58481
2.58095
2.61011
2.58619
2.58773
2.58331
2.58301
2.58931
2.59352
2.57945
2.58329
2.59153
2.58278
2.59572
2.5835
2.60334
2.59335
2.58338
2.57753
2.58186
2.58596
2.5781
2.58055
2.58209
2.5811
2.58416
2.58344
2.60552
2.58615
2.60397
2.59621
2.58905
2.59112
2.59216
2.61925
2.59985
2.59059
2.58516
2.58804
2.59092
2.6198
2.58747
2.6156
2.6224
2.58271
2.60696
2.60998
2.59376
2.59001
2.59701
2.58376
2.58066
2.58403
2.61145
2.58537
2.61252
2.58144
2.58586
2.61582
2.58859
2.58022
2.6222
2.60249
2.61054
2.59036
2.61936
2.58062
2.62416
2.60284
2.61066
2.61496
2.59679
2.58543
2.61834
2.59267
2.60774
2.57982
2.57925
2.59281
2.58351
2.61164
2.584
2.61316
2.58378
2.61353
2.6035
2.57936
2.5975
2.62027
2.58724
2.60341
2.58263
2.60285
2.6139
2.58715
2.58895
2.59326
2.59058
2.58705
2.61016
2.58891
2.58775
2.6008
2.59883
2.60367
2.59304
2.58668
2.6049
2.60707
2.5938
2.58826
2.59014
2.58493
2.60231
2.60186
2.57995
2.6009
2.58883
2.60755
2.59369
2.6135
2.58622
2.5789
2.58975
2.58197
2.58634
2.60303
2.61349
2.58139
2.59941
2.58788
2.61423
2.603
2.59978
2.61396
2.58981
2.60178
2.58639
2.61006
2.58821
2.58671
2.60746
2.58852
2.58862
2.61689
2.61287
2.59319
2.58762
2.5775
2.60581
2.59502
2.59934
2.5837
2.61
2.59641
2.60596
2.61295
2.60069
2.61428
2.60044
2.60709
2.58612
2.58515
2.6083
2.59659
2.59388
2.60978
2.6147
2.59449
2.59193
2.59811
2.58158
2.5915
2.59508
2.60072
2.58901
2.60408
2.60446
2.61302
2.60627
2.58393
2.58837
2.59422
2.6052
2.60492
2.57573
2.62067
2.59631
2.62068
2.62363
2.58904
2.58228
2.59407
2.58841
2.60396
2.59246
2.62293
2.60507
2.62154
2.59273
2.60446
2.61213
2.61995
2.57644
2.61743
2.59135
2.59204
2.61767
2.59641
2.58979
2.59251
2.5984
2.57542
2.62236
2.59602
2.62018
2.58342
2.60296
2.58949
2.58355
2.61825
2.60524
2.5963
2.60973
2.61727
2.59035
2.59646
2.62447
2.58662
2.58068
2.60799
2.61968
2.61043
2.60269
2.61649
2.61003
2.61563
2.60761
2.57541
2.59944
2.62411
2.60852
2.58945
2.58325
2.58572
2.58957
2.5889
2.58997
2.60544
2.57917
2.59925
2.61641
2.59193
2.59177
2.60347
2.59979
2.61254
2.62037
2.59888
2.61534
2.59258
2.61332
2.57168
2.58324
2.58352
2.57746
2.60125
2.60527
2.61345
2.60225
2.6063
2.60791
2.60262
2.62277
2.58002
2.60963
2.8297
2.60717
2.6162
2.61135
2.60462
2.61118
2.59299
2.60059
2.59625
2.60402
2.61888
2.59589
2.59445
2.58532
2.59321
2.58806
2.59901
2.61162
2.5898
2.5848
2.59987
2.61433
2.6205
2.61588
2.606
2.60166
2.59582
2.61536
2.60944
2.59657
2.60498
2.59852
2.59396
2.59566
2.59095
2.59993
2.589
2.59132
2.60678
2.61178
2.58929
2.58819
2.61883
2.58252
2.593
2.58604
2.58724
2.59
2.59413
2.59718
2.58877
2.5903
2.611
2.5913
2.59716
2.58421
2.6247
2.5899
2.60187
2.59062
2.57139
2.61158
2.59548
2.61152
2.57667
2.58718
2.61703
2.60622
2.60508
2.60004
2.59293
2.60392
2.5949
2.57603
2.59853
2.59857
2.56817
2.61889
2.59913
2.61465
2.58645
2.58888
2.58175
2.60139
2.59935
2.57102
2.58127
2.59032
2.61883
2.59723
2.60322
2.58216
2.60412
2.59961
2.59579
2.60423
2.58883
2.58664
2.61513
2.60447
2.60241
2.59139
2.59089
2.57884
2.60109
2.6202
2.58655
2.60004
2.6037
2.58521
2.57661
2.5939
2.59337
2.61634
2.59476
2.57536
2.61861
2.62129
2.59065
2.59456
2.58696
2.58532
2.62459
2.60349
2.59186
2.6021
2.61694
2.59262
2.61691
2.62487
2.59123
2.62064
2.62476
2.58934
2.58817
2.59728
2.59396
2.59065
2.57432
2.61098
2.62579
2.58773
2.58181
2.59668
2.59294
2.57372
2.59975
2.59011
2.60204
2.60721
2.62008
2.61049
2.57333
2.58398
2.59391
2.57024
2.61958
2.61275
2.59444
2.62248
2.59096
2.56946
2.62538
2.60097
2.60125
2.5907
2.58926
2.59175
2.59425
2.59491
2.60668
2.57252
2.58862
2.59863
2.60177
2.58851
2.59134
2.59274
2.60418
2.60567
2.60364
2.60407
2.56728
2.58842
2.5993
2.59455
2.58011
2.57586
2.60022
2.61903
2.59668
2.61354
2.59011
2.58324
2.61033
2.59182
2.58814
2.58382
2.60218
2.62759
2.59417
2.58963
2.61139
2.59802
2.59781
2.62011
2.61177
2.59708
2.60313
2.60739
2.60028
2.58643
2.596
2.57895
2.61104
2.61206
2.58969
2.59553
2.61518
2.58991
2.61266
2.61264
2.60788
2.62572
2.62589
2.58689
2.58037
2.583
2.60033
2.59109
2.60335
2.61009
2.59898
2.60925
2.59412
2.58895
2.62125
2.59006
2.60529
2.59281
2.62482
2.61103
2.61248
2.62507
2.57091
2.58904
2.59555
2.58851
2.58013
2.5862
2.60065
2.60248
2.59752
2.58736
2.58251
2.61721
2.59693
2.59698
2.58823
2.60968
2.58489
2.59234
2.60161
2.58888
2.59249
2.58137
2.59824
2.59307
2.62523
2.58904
2.59427
2.60538
2.61209
2.58771
2.60495
2.59963
2.59316
2.61037
2.58148
2.58644
2.59986
2.58767
2.58038
2.59545
2.58672
2.58873
2.62379
2.59288
2.6019
2.59903
2.626
2.59771
2.59941
2.60818
2.58833
2.59862
2.6017
2.59534
2.62426
2.60798
2.58976
2.5991
2.5726
2.60573
2.61984
2.60344
2.58673
2.58478
2.59198
2.59519
2.58521
2.6127
2.5693
2.59248
2.61143
2.58042
2.609
2.60425
2.59428
2.61898
2.57886
2.60161
2.57901
2.59767
2.59028
2.5972
2.59198
2.60378
2.5743
2.5886
2.5923
2.59813
2.59198
2.58329
2.58938
2.59351
2.58179
2.58986
2.60558
2.59609
2.59628
2.58366
2.6253
2.58624
2.58201
2.61607
2.61893
2.5933
2.60198
2.59991
2.5893
2.62093
2.58958
2.58077
2.60066
2.5992
2.61435
2.61631
2.58906
2.60877
2.61497
2.59861
2.5908
2.59861
2.61066
2.59041
2.58565
2.62524
2.60551
2.60828
2.59142
2.59428
2.62333
2.62608
2.59495
2.58412
2.58905
2.60616
2.60086
2.60766
2.61171
2.59423
2.59898
2.59483
2.59449
2.59013
2.5904
2.61694
2.59213
2.57519
2.60653
2.58681
2.59022
2.60413
2.60123
2.60054
2.58936
2.59296
2.59662
2.60575
2.60247
2.57748
2.61333
2.58744
2.58845
2.5844
2.62303
2.58809
2.59303
2.61113
2.59803
2.61583
2.60748
2.59434
2.60205
2.60242
2.60022
2.60133
2.61492
2.6246
2.59196
2.59951
2.61295
2.6109
2.60701
2.58698
2.60179
2.62022
2.59416
2.59995
2.59448
2.5949
2.59657
2.62386
2.59721
2.61593
2.60566
2.60319
2.61318
2.58609
2.59107
2.62177
2.60331
2.59952
2.60042
2.59257
2.59549
2.60124
2.59742
2.61073
2.59939
2.61427
2.61441
2.59944
2.60182
2.59151
2.58356
2.60088
2.61758
2.6247
2.61236
2.61071
2.58725
2.60696
2.60181
2.58861
2.58763
2.58947
2.61818
2.58265
2.58613
2.6037
2.5876
2.58995
2.59985
2.60947
2.60844
2.59858
2.5874
2.61148
2.5962
2.58832
2.61625
2.5882
2.59615
2.60099
2.61046
2.58548
2.5977
2.61762
2.59461
2.59226
2.57408
2.58056
2.62241
2.59877
2.60209
2.59677
2.5969
2.59957
2.58741
2.58527
2.58675
2.6048
2.58907
2.58915
2.61236
2.60327
2.58844
2.58451
2.58754
2.58828
2.59004
2.60999
2.59101
2.61358
2.5962
2.59861
2.61619
2.59574
2.60449
2.60905
2.59571
2.60546
2.5992
2.58559
2.5896
2.61142
2.59183
2.58847
2.61749
2.60048
2.62262
2.59313
2.59634
2.60801
2.58867
2.61662
2.60946
2.59276
2.58564
2.58192
2.58409
2.596
2.58948
2.59136
2.60361
2.57703
2.59691
2.58881
2.61555
2.61019
2.61829
2.62102
2.60124
2.59915
2.60931
2.58023
2.58871
2.61909
2.60557
2.60867
2.60036
2.59724
2.58708
2.5899
2.58876
2.60657
2.60835
2.61744
2.58663
2.57455
2.59181
2.59012
2.58156
2.60072
2.58767
2.60284
2.61027
2.5967
2.58953
2.59583
2.61785
2.61492
2.58991
2.58574
2.59485
2.59977
2.58738
2.61025
2.5923
2.59954
2.5979
2.5694
2.57854
2.60848
2.61729
2.6233
2.59322
2.5993
2.57733
2.59835
2.60246
2.59623
2.59711
2.5918
2.59078
2.60194
2.59715
2.59695
2.59423
2.61059
2.57142
2.58055
2.60689
2.60468
2.59391
2.60287
2.59612
2.58971
0.0336824
2.59582
2.59134
2.61161
2.58745
2.61078
2.58108
0.0314551
2.59029
2.59397
2.59727
2.60113
0.0293248
2.61095
0.032265
2.58544
2.58654
0.0291901
0.028076
2.59547
0.0303644
0.028371
0.0277031
0.0308758
0.0309208
0.0284509
0.0271929
2.62256
2.58894
0.033619
0.0294921
0.0284925
0.0284807
0.0264378
0.0302055
0.0283731
0.0267921
2.60198
2.58286
2.60733
0.0258737
0.0257048
0.0255215
0.0289229
0.0255623
0.0277452
0.0269668
0.028286
0.0258663
0.0248166
0.02178
2.59922
2.57482
0.0287943
0.0252043
0.0247219
0.0238798
0.0233084
2.59118
0.0271469
0.0267347
0.0227561
0.0230166
2.60333
0.0302083
0.0251023
0.0234881
0.0229656
0.0219575
2.6099
2.60564
2.60669
2.62658
0.0254084
0.0251388
0.024948
0.0232816
0.0226622
0.0215121
2.59171
2.5955
0.0276571
0.0267714
0.0260459
0.0250592
0.0245289
0.0231265
0.024388
0.0231633
0.0235994
0.0225082
0.0225717
0.0297003
0.0262745
0.0245918
0.0246125
0.0241901
0.0233306
0.0210262
0.0211338
2.5865
2.57653
0.0288796
0.0256143
0.0245419
0.0244003
0.023801
0.0241839
0.0239349
0.0211504
0.0235798
0.0232656
0.019899
2.59347
0.031434
0.0255111
0.0239429
0.0239909
0.0230819
0.0226898
0.0238816
0.0205623
0.0206431
2.61766
2.58766
2.59327
0.0245823
0.0240129
0.0241071
0.0220466
0.0227806
0.0212268
0.0210796
0.018801
0.0296745
0.0282694
0.0279755
0.0264015
0.0263453
0.0260296
0.0259415
0.0243089
0.0232962
0.0229025
0.0217368
0.0220596
0.0225513
0.0207452
0.0208531
0.0197064
0.0292878
0.0248023
0.0234266
0.0237819
0.0221001
0.0215806
0.0235751
0.0219471
0.0211558
0.0225765
0.0202633
0.0214288
0.0214878
0.0214191
0.0212745
0.0211227
2.60568
0.0277782
0.0246418
0.0229594
0.0235902
0.0231796
0.0214369
0.022477
0.0214307
0.0220445
0.0205771
0.0284065
0.0278905
0.0261388
0.0243918
0.0238776
0.0234509
0.0215615
0.0237755
0.0208816
0.022186
0.0205215
0.0205139
0.0194378
0.0210213
0.019948
0.0201329
0.0201031
2.59211
0.0268404
0.0264191
0.0255123
0.0242894
0.0241554
0.0237656
0.021768
0.0223676
0.0208663
0.0207643
0.0196286
0.020525
0.0216227
0.0200921
0.0205852
0.0193969
0.0192411
0.0202494
0.0198268
0.0194615
0.0184127
2.58821
0.030622
0.0258068
0.0245959
0.0243692
0.0242043
0.0236105
0.0226541
0.0220688
0.0231533
0.0224207
0.0211262
0.0216418
0.0215469
0.0213413
0.0206247
0.0197439
0.0200574
0.0193888
0.0181533
2.60599
0.0271492
0.0265306
0.0231888
0.0228125
0.0224721
0.0217939
0.0216694
0.0195648
0.0212676
0.0201145
0.0198214
0.0208418
0.0198696
0.0195823
0.0196125
0.0194309
0.0173561
0.0234423
0.0229847
0.0237166
0.0234731
0.023098
0.0216635
0.0224492
0.0219409
0.0232694
0.0224677
0.0203224
0.0219036
0.0215329
0.0213323
0.0213497
0.0191207
0.0206133
0.01909
0.0187819
0.0183673
0.0172729
0.0165959
2.60221
0.0254105
0.0237235
0.0213071
0.0206949
0.0219619
0.0199633
0.0207235
0.0205333
0.0203888
0.0185902
0.0176898
2.58958
2.62954
0.0275513
0.0254656
0.0232908
0.0231696
0.021537
0.0238122
0.0215309
0.0216901
0.0212554
0.0194919
0.0201276
0.0180776
0.0187403
0.0178608
0.0175717
0.0248696
0.0224296
0.0225602
0.0219446
0.0210725
0.0209084
0.0212819
0.0212337
0.0212309
0.0196043
0.0210484
0.0192758
0.0191048
0.020001
0.0187778
0.0191096
0.0179602
0.0183905
0.0180676
0.0171077
2.61528
2.58829
0.0237778
0.0209332
0.0221492
0.0204337
0.0209704
0.0206286
0.0200092
0.0209193
0.0207166
0.0201758
0.0180622
0.0204245
0.0186105
0.0185347
0.0184696
0.0184857
0.0175082
0.0174499
0.0168
0.0165561
0.0261247
0.0250148
0.022924
0.0218016
0.0213545
0.0190837
0.0215316
0.0196839
0.0210109
0.0187068
0.0169501
0.0165207
0.0160245
2.59298
0.0267439
0.0250113
0.0233683
0.0226533
0.0227643
0.021746
0.021649
0.0218515
0.0205937
0.0204145
0.019902
0.0199003
0.0197145
0.0196082
0.0198122
0.0195959
0.0191962
0.0189513
0.0187126
0.017551
0.0165112
0.0164594
2.59046
2.58888
0.0260214
0.0254449
0.0257663
0.0228592
0.0220491
0.0232554
0.019888
0.0200255
0.019351
0.020837
0.0200367
0.0188676
0.0196349
0.0189207
0.0189888
0.0189696
0.0182778
0.0181716
0.0173837
0.0171577
0.0164492
2.56606
0.0257374
0.0235735
0.0224823
0.0224881
0.0223561
0.0218097
0.020439
0.0201084
0.020205
0.02005
0.0183953
0.0192898
0.0191409
0.0190003
0.0187755
0.018757
0.0177634
0.0186772
0.0176962
0.0171158
0.0174603
0.0172449
0.0169536
0.0157166
0.0250333
0.0246571
0.0222449
0.0214323
0.0206214
0.0212898
0.0210019
0.0208901
0.0202876
0.0181635
0.0194041
0.0189349
0.0180418
0.0179633
0.017268
0.0174296
0.0171466
0.0168941
0.0168408
0.0162982
0.0157398
2.58995
2.59959
2.60289
0.0266349
0.0254207
0.0230092
0.0230023
0.0226571
0.0208594
0.0217405
0.02
0.0203268
0.0191847
0.0190051
0.0189602
0.018788
0.0177664
0.0175415
0.016837
0.017822
0.0178005
0.0173469
0.0176737
0.0174511
0.024899
0.0215347
0.0208227
0.0207145
0.0192982
0.0205556
0.0198982
0.019286
0.0199143
0.0197962
0.0204908
0.0191878
0.0175513
0.019288
0.0174527
0.0167388
0.0189819
0.0185717
0.0181633
0.0181439
0.0178571
0.0178386
0.0155676
2.59645
0.0243378
0.0235724
0.0228905
0.0228962
0.0231186
0.0202154
0.021206
0.0204092
0.019786
0.0196962
0.0197959
0.0183822
0.0198
0.0189276
0.0173533
0.0190105
0.0156186
0.0145918
0.0282459
0.0248051
0.0243901
0.021639
0.0222612
0.0220556
0.0197102
0.0203102
0.0205185
0.019737
0.0179594
0.0199901
0.0192092
0.0187962
0.0195129
0.0182663
0.0181653
0.016352
0.0180704
0.0168492
0.014948
0.0295635
0.021939
0.0218272
0.0209371
0.0208064
0.0200163
0.0197003
0.0203316
0.0201023
0.0201673
0.0199347
0.0190816
0.0189031
0.0176084
0.0186235
0.0175574
0.0179497
0.0178143
0.0177884
0.0176656
0.0166582
2.5858
0.0247087
0.0241847
0.0233694
0.0221929
0.0218647
0.0199806
0.0195918
0.0200064
0.0200207
0.0188186
0.0181349
0.0196939
0.0188776
0.0190163
0.0188329
0.0189837
0.0183676
0.0179656
0.0176622
0.0167439
0.0167472
0.015
0.015152
0.0271429
0.0252189
0.0250521
0.0242915
0.022288
0.0223102
0.0227676
0.0225325
0.0204288
0.022041
0.0209517
0.0206028
0.0203635
0.018098
0.0178592
0.0180245
0.0175878
0.016639
0.0170445
0.0152321
0.0155411
0.0139167
2.57352
0.0227031
0.0213858
0.0216349
0.0198051
0.0209204
0.0184266
0.0196227
0.0192867
0.0191652
0.0196173
0.0194704
0.0173284
0.0182382
0.0175765
0.0178759
0.0172264
0.0170137
0.0166337
0.0162745
0.0163329
2.59193
0.0243449
0.0233227
0.0222082
0.0213166
0.0215673
0.0197592
0.0195011
0.018552
0.0187255
0.019093
0.0187918
0.0175602
0.0188798
0.0182717
0.0176694
0.0181043
0.0162245
0.0175533
0.0173969
0.0164003
0.0169841
0.0156145
0.0148122
0.0146106
0.0268599
0.0220522
0.0217534
0.0195178
0.0190826
0.0207969
0.0185714
0.0181966
0.0179615
0.0172354
0.0167347
0.0167153
0.0161656
0.0159933
0.0157153
0.015649
0.0157235
0.0148
0.014786
2.59968
0.0245733
0.0237561
0.0217738
0.0208204
0.0188778
0.0205104
0.019249
0.0185615
0.0195351
0.018655
0.0181746
0.0180023
0.0179755
0.0173778
0.0174043
0.0164411
0.0157184
0.0156122
0.0155227
0.0151452
2.61225
0.0240388
0.0222704
0.0222255
0.0214517
0.0221431
0.0193357
0.0210595
0.0208166
0.0193901
0.0205289
0.019839
0.0199235
0.0173492
0.0168173
0.0157717
0.014288
2.58953
0.0231656
0.0219668
0.0204582
0.020516
0.0201184
0.0192145
0.0193941
0.0197247
0.0187796
0.0171949
0.0180635
0.0176163
0.016998
0.0159221
0.0160941
0.0153268
0.0139296
0.0143431
2.60414
0.0270431
0.0266418
0.0239944
0.0219501
0.021113
0.0206145
0.0214473
0.0203064
0.0209186
0.0205102
0.0179798
0.0199288
0.0174677
0.0191837
0.0185772
0.0187188
0.0186793
0.0184694
0.0161431
0.014899
0.0152272
0.0152041
2.60311
2.5919
0.0229592
0.0229164
0.0212255
0.0205382
0.0208163
0.0195419
0.0204449
0.0195733
0.0176839
0.0195046
0.0191839
0.0181913
0.0187847
0.0186168
0.0167554
0.0182694
0.0179407
0.0165398
0.0171512
0.0168431
0.016737
0.0160109
0.015751
0.0148051
0.0147969
0.014615
2.59205
0.0246492
0.0205003
0.0199105
0.0203714
0.0202228
0.0183306
0.0180329
0.019549
0.0190717
0.0183757
0.0182962
0.0171429
0.016698
0.016537
0.0157969
2.60081
0.025899
0.0224122
0.022337
0.0216452
0.0211245
0.0193064
0.0186966
0.0201847
0.0177588
0.0199043
0.0184901
0.0182656
0.0189084
0.0172782
0.0178072
0.0188064
0.0165306
0.017756
0.0170223
0.0161798
0.0163472
0.0163633
0.0158913
0.015423
0.0152494
0.0152876
0.0213265
0.0208173
0.0214954
0.0203071
0.0201594
0.0196949
0.0200125
0.0174943
0.0171486
0.0166694
0.0179901
0.0174122
0.0169446
0.0156247
0.0174638
0.0173375
0.0162051
0.0149806
0.014898
0.0145955
0.0136145
0.0130166
0.0255382
0.0234007
0.0218599
0.0218388
0.0198612
0.0202043
0.0174207
0.0182908
0.0182558
0.0170688
0.0170429
0.0151673
0.0166329
0.0165513
0.0161227
0.0160857
0.0160019
0.0159332
0.0148533
0.0152228
2.57473
0.0293915
0.0257256
0.0256513
0.0234752
0.0212452
0.0192268
0.019186
0.019115
0.0184949
0.0188867
0.0171762
0.0170491
0.0172532
0.0171243
0.0170408
0.0160207
0.0155839
0.0157574
0.0150431
0.0144269
0.0144065
2.58819
0.0230635
0.0188255
0.017872
0.0150827
0.017182
0.0171334
0.0170522
0.0168459
0.0165737
0.0161125
0.0159089
0.0156554
0.0157043
0.0154674
0.0152561
0.0149143
0.0148696
2.58836
0.026737
0.0212247
0.0211678
0.0206122
0.0191004
0.0191742
0.0185751
0.0181781
0.0194531
0.0180615
0.017247
0.0177357
0.0164288
0.0152432
0.0170556
0.0168268
0.0158832
0.0153798
0.0150574
0.015205
0.0151112
0.0137235
0.0144898
0.0140465
0.0136452
2.57583
0.0254908
0.0203492
0.0199717
0.0204819
0.0194003
0.0189806
0.0185003
0.0197982
0.0184423
0.0177831
0.0190296
0.0185735
0.0184819
0.0170056
0.017351
0.0170929
0.0169288
0.016751
0.0172486
0.017064
0.0164786
0.0158247
0.0144398
0.0147513
0.0142663
0.0221158
0.0202432
0.0200309
0.0197306
0.0209221
0.018182
0.0184065
0.018339
0.0178581
0.0183683
0.0183153
0.0179321
0.0158554
0.0175941
0.0175635
0.0173676
0.0170417
0.0158311
0.0160204
0.0150367
0.0133322
2.60023
0.0211817
0.0201043
0.0202099
0.0177942
0.0193594
0.0188122
0.0177738
0.017552
0.0179092
0.0186047
0.0171431
0.0162286
0.0165347
0.0163166
0.0158756
0.0154415
0.0139055
0.0147306
0.0145928
0.0141847
2.60008
2.59184
0.0251145
0.021998
0.0221452
0.0181642
0.0176594
0.0165431
0.0182816
0.0177553
0.0172021
0.0162676
0.0171001
0.0164653
0.0162247
0.01582
0.0155929
0.0135268
0.0130329
2.61391
2.59761
2.59208
0.0221554
0.0203561
0.0194935
0.0193684
0.0183694
0.0194956
0.0192574
0.0172097
0.0178803
0.0174823
0.015788
0.017449
0.0168378
0.0161224
0.0155125
0.0153064
0.0145398
0.0141184
0.0136798
2.59725
0.0198786
0.0195289
0.019127
0.0187758
0.0179592
0.0193778
0.0182225
0.0176786
0.0168735
0.0168676
0.017348
0.0160459
0.0167778
0.0161724
0.0158277
0.0152099
0.015102
0.0154473
0.0142898
0.0141929
0.0132674
2.58366
0.0204207
0.0188839
0.018664
0.0180653
0.0163429
0.0177105
0.0165316
0.017166
0.0166533
0.0155194
0.0166043
0.0164092
0.015686
0.0163357
0.0145329
0.0158617
0.0150003
0.014186
0.0133403
0.0134247
0.013098
0.0128204
0.012601
0.0234694
0.022152
0.018286
0.0180867
0.0189959
0.0170799
0.0171709
0.0186464
0.0184599
0.0178905
0.0156023
0.0166227
0.0165673
0.0151329
0.016237
0.0160411
0.0159415
0.0155357
0.0152633
0.0151031
0.0141878
0.0133737
0.0130612
0.012351
0.0221635
0.0219841
0.0210954
0.0203429
0.0176247
0.017924
0.0186735
0.0188582
0.017297
0.0179684
0.0178655
0.0171438
0.0164327
0.0166327
0.0161031
0.0156163
0.0151023
0.0155166
0.0141247
0.0141839
0.0137757
0.0135125
0.0254245
0.0215035
0.0188901
0.0185862
0.0195231
0.0190964
0.0173724
0.0172902
0.016148
0.0162255
0.0160268
0.0144908
0.0141837
0.0137943
0.0131186
0.0125227
0.0128629
0.0216367
0.0203125
0.018371
0.0179025
0.0192204
0.0165806
0.0180921
0.0160778
0.0170466
0.0169388
0.0162898
0.0160214
0.0156378
0.014698
0.0145551
0.0146198
0.0130867
0.0141962
0.014088
0.0140816
0.0131839
0.0130819
0.0126898
0.0110704
2.58788
0.0222816
0.0213349
0.0184509
0.0178685
0.0175551
0.016902
0.0168867
0.0160367
0.0163839
0.0161388
0.0158443
0.0150092
0.0147959
0.0149105
0.0144901
0.0144211
0.0129615
0.0239798
0.0227105
0.0223276
0.0206696
0.0200653
0.0198166
0.0185194
0.0169425
0.0182153
0.0174492
0.0147194
0.015475
0.0162819
0.0152062
0.0149043
0.0154313
0.0153316
0.0151145
0.0140819
0.0136941
0.0135778
0.0122264
0.0216043
0.0211039
0.0204082
0.0202124
0.0195929
0.0182468
0.0184758
0.0177031
0.0171616
0.0172451
0.0181864
0.0178477
0.0171542
0.0162309
0.014737
0.0165615
0.0161349
0.015001
0.0157145
0.0154119
0.0153071
0.0146668
0.0147765
0.0143112
0.0139444
0.0133714
0.0131724
0.0127357
2.60856
0.0235363
0.0196571
0.0182653
0.0173633
0.017041
0.0158684
0.0167847
0.0164186
0.0147676
0.0149554
0.0150309
0.0149717
0.0140317
0.0147439
0.0139805
0.0129164
0.0135724
0.0122449
0.0118378
2.59375
2.5866
0.0185431
0.0197969
0.0174573
0.0179164
0.0179847
0.0182745
0.0183227
0.017477
0.0163696
0.0163306
0.0161288
0.0159371
0.0155602
0.0150064
0.0153186
0.0146939
0.0143684
0.0128288
2.58526
0.0210435
0.020271
0.019037
0.0194245
0.0188982
0.0162408
0.0180819
0.0173041
0.0168574
0.0160227
0.0164541
0.0163918
0.0156776
0.0153125
0.0147145
0.0144962
0.0129407
0.0129755
2.56837
2.58737
0.0234127
0.020899
0.0185994
0.0184007
0.0176541
0.0174721
0.0190227
0.0170596
0.0168084
0.0160704
0.0157143
0.0141554
0.0156125
0.0148023
0.013686
0.0134694
0.012786
2.59578
0.0219779
0.0212408
0.0203153
0.0203982
0.0191566
0.0182024
0.018169
0.0183084
0.0179717
0.0167357
0.0161265
0.017439
0.0169721
0.0159184
0.0148268
0.0145635
0.0139229
0.0139368
0.0138796
0.0135921
0.012439
0.0125819
0.0114449
0.0109704
2.60551
0.019601
0.0194186
0.0192949
0.0192
0.0185268
0.0183861
0.0198533
0.016486
0.0164296
0.01505
0.0166133
0.0160513
0.0144331
0.0148214
0.0137903
0.0161316
0.0154139
0.0142337
0.0146511
0.0139854
0.0132986
0.0120839
0.0112255
0.0223724
0.0206329
0.0195982
0.0181186
0.0180737
0.0175325
0.0171449
0.0158163
0.0152374
0.0150125
0.0143887
0.0159464
0.0139817
0.0153102
0.0150255
0.0152791
0.0127592
0.0137472
0.0134704
0.0123969
0.0121882
0.0129959
2.58815
2.60943
0.0209267
0.0200827
0.0176337
0.0175673
0.0170862
0.0170741
0.0172178
0.0159267
0.0159193
0.0178574
0.0154917
0.0150653
0.0146949
0.0158166
0.0155469
0.0147247
0.0159575
0.0151594
0.0142204
0.0145105
0.0135878
0.0136367
0.0134819
0.0133765
0.0128905
0.0124615
0.0120776
0.0111878
0.0116043
2.6022
2.59135
2.58305
2.59584
2.58492
2.61016
2.58937
2.58503
2.60376
2.58556
2.60739
2.58605
2.59219
2.59016
2.59091
2.59664
2.60315
2.60231
2.60916
2.60904
2.6068
2.59653
2.59586
2.60171
2.58628
2.60596
2.58603
2.58569
2.60728
2.59714
2.60487
2.5859
2.60649
2.60222
2.59246
2.58651
2.58814
2.59735
2.59128
2.6069
2.59606
2.59338
2.60145
2.58633
2.59925
2.58846
2.58623
2.59389
2.60055
2.58671
2.58714
2.58746
2.58836
2.58726
2.61006
2.59429
2.61038
2.60119
2.59285
2.59598
2.58435
2.6254
2.58357
2.59214
2.59963
2.58835
2.58716
2.61177
2.60301
2.6042
2.60569
2.5872
2.58962
2.58868
2.61999
2.59169
2.59033
2.60685
2.62504
2.60543
2.60531
2.59881
2.60847
2.59554
2.6074
2.58842
2.60426
2.59064
2.60987
2.59895
2.61612
2.58812
2.59347
2.58486
2.59626
2.58772
2.60792
2.61825
2.59938
2.59611
2.59183
2.61458
2.61448
2.6112
2.62427
2.59798
2.60487
2.60317
2.60161
2.60696
2.60274
2.60741
2.62639
2.6015
2.59053
2.60139
2.59391
2.58574
2.59592
2.59796
2.59238
2.60177
2.58898
2.59379
2.58873
2.60819
2.60504
2.60352
2.59556
2.59077
2.61511
2.60136
2.60356
2.58743
2.58641
2.59716
2.60611
2.58926
2.61846
2.60091
2.61261
2.62518
2.62415
2.58803
2.588
2.59215
2.59323
2.59786
2.59358
2.60225
2.61436
2.61311
2.59336
2.59257
2.58877
2.58636
2.58694
2.59252
2.58595
2.60713
2.58899
2.60265
2.58397
2.58947
2.59146
2.58133
2.60835
2.61718
2.59228
2.59326
2.59072
2.60112
2.61952
2.58521
2.58978
2.62128
2.5897
2.59286
2.59176
2.60107
2.58893
2.59044
2.62183
2.61455
2.58617
2.59311
2.62069
2.59417
2.58857
2.60909
2.58762
2.61059
2.61259
2.58547
2.58572
2.60436
2.59892
2.5977
2.58653
2.58489
2.62081
2.62212
2.61974
2.5915
2.58676
2.60697
2.59409
2.60594
2.59039
2.58847
2.62315
2.60991
2.59173
2.58483
2.61343
2.58965
2.60529
2.61423
2.57924
2.58607
2.59359
2.61155
2.62151
2.6122
2.5926
2.61904
2.62195
2.59785
2.58761
2.5957
2.60386
2.59444
2.58286
2.59
2.58388
2.62282
2.61829
2.6016
2.60056
2.59957
2.5873
2.59379
2.60155
2.61538
2.60169
2.59612
2.61333
2.59
2.5879
2.58329
2.59144
2.62307
2.6114
2.61561
2.60772
2.59016
2.59192
2.58708
2.57878
2.59994
2.59882
2.6111
2.58639
2.62402
2.58313
2.57867
2.60354
2.60172
2.60268
2.5739
2.61268
2.59507
2.60298
2.6092
2.60764
2.59189
2.58788
2.61498
2.59029
2.59908
2.58553
2.57849
2.59722
2.5988
2.59251
2.59358
2.57693
2.59219
2.58451
2.60832
2.58753
0.0418647
0.0422003
2.59513
0.0407717
2.57815
0.0412145
0.0401134
2.60027
0.0394133
2.59131
2.5746
2.58086
0.0436145
0.0421796
0.0419452
0.0397272
0.0381804
2.60851
2.60058
0.04513
2.61107
0.0434411
0.0397864
0.0391184
0.037801
2.60348
2.58507
0.0419962
0.0402041
0.0391469
0.0377687
0.0372425
2.61673
2.58755
2.61782
0.0367874
0.0352902
0.0396948
0.0378464
0.0368549
0.0366792
0.0365892
0.0351421
0.0382044
0.0382941
0.0366524
0.0343697
2.609
2.57105
2.60514
0.0376447
0.037915
0.033603
0.0352531
0.0336821
2.59348
0.0366383
0.0338876
2.60239
2.5946
0.0393778
0.0390187
0.0361801
0.0313102
2.58578
0.0403561
0.0402962
0.0314507
0.0427574
0.0364474
0.0350788
0.0341414
2.58825
0.0367311
0.0366915
0.0360738
0.0331612
2.60383
2.62027
2.5892
2.5866
0.0440819
0.0374622
0.0353841
0.0358364
0.0349187
0.0342961
0.0355037
0.0419117
0.0378655
0.035237
0.0354518
0.035425
0.0341972
0.0322502
0.0301762
0.0281643
0.0388786
0.0355296
0.0349351
0.0317388
0.0337992
0.0333558
0.0326927
0.0328639
0.0317668
0.0317842
0.0303992
0.0297592
0.0371722
0.0342269
0.0384265
0.0357646
0.0349596
0.0348811
0.0346765
0.033273
0.0310509
0.0294627
0.0335297
0.0335819
0.0332986
0.0315071
0.0341222
0.0310237
0.0294026
2.60339
0.0387778
0.0382248
0.0369676
0.0369456
0.0342981
0.0327115
0.033989
0.0330116
0.0328648
0.0323688
0.0328544
0.031098
0.0301046
0.0381166
0.0368809
0.0364625
0.0356312
0.034609
0.0331278
0.032378
0.0318691
0.0316365
0.0288681
0.0307065
0.0259184
2.58835
0.0361183
0.035471
0.0353618
0.0344373
0.0334185
0.0319436
0.0330413
0.0309944
0.0325069
0.0300574
0.0290908
0.0291469
0.0291023
0.0409221
0.0367137
0.0330833
0.0320497
0.0318932
0.031791
0.0311065
0.0326677
0.031075
0.0305019
2.60762
2.58899
2.59635
2.5812
2.62847
0.0376056
0.0339389
0.0343326
0.032981
0.0310898
0.02705
2.58927
0.0393166
0.0382497
0.0378666
0.0341651
0.0309246
0.0313334
0.0292915
0.0297031
0.0306529
0.0285724
0.0270472
0.0341935
0.0347198
0.0334889
0.0310822
0.0332282
0.0300431
0.0308492
0.0298709
0.0303071
0.0296571
0.0286737
0.0295153
0.0280329
0.0269446
2.60542
0.039351
0.0356275
0.0333845
0.0335369
0.0319955
0.0319621
0.0299105
0.0322782
0.0294898
0.0291554
0.0263545
2.60326
0.0365623
0.0345597
0.0331139
0.0329309
0.0319547
0.0306195
0.0316457
0.0303807
0.029835
0.0301033
0.0298552
0.0293607
0.0284007
0.0269397
0.0269036
0.0281448
0.0275602
2.5939
0.0410245
0.0329995
0.0306325
0.0311343
0.0305151
0.0290076
0.0280726
0.0259084
0.0295105
0.0291878
0.0287792
0.0278608
0.0268268
0.0260778
0.0254092
0.0264309
2.5924
0.0411125
0.0391643
0.0363846
0.0349463
0.0338925
0.0322307
0.0291071
0.0292574
0.0293898
0.0307162
0.0308551
0.025718
0.0285714
0.0286898
0.0276337
0.0244898
2.59171
0.0354784
0.0342084
0.0332771
0.0331076
0.0318598
0.0311683
0.0330183
0.0267357
0.0313355
0.0312775
0.0302797
0.0288963
0.029848
0.0287102
0.0277357
0.0285839
0.027337
0.0273617
0.0266329
0.0263934
0.0260513
0.0252124
2.62018
2.5961
0.0310249
0.0297959
0.0293692
0.0319582
0.0291837
0.0285147
0.0306417
0.0295061
0.0290187
0.0283676
0.0282064
0.0281635
0.027551
0.0269841
0.0271061
0.0265898
0.0267411
0.0252561
0.0251031
0.0319888
0.030839
0.0305346
0.0289701
0.029798
0.0294901
0.028859
0.0270408
0.0290827
0.0283787
0.0287776
0.0282745
0.0270615
0.0265827
0.0262309
0.0276163
0.0269501
0.0272758
0.0269619
0.0254145
0.0246349
2.58915
2.62449
0.0340935
0.0338867
0.0328697
0.0321643
0.0278962
0.0313484
0.0302883
0.030424
0.0296043
0.0308308
0.0306591
0.0278143
0.029088
0.0294546
0.0287561
0.0287813
0.0274138
0.0274395
0.0269117
0.0255937
0.0257226
0.026542
0.0264449
0.0255139
0.024319
0.023371
0.0230704
0.0367597
0.0358556
0.0356255
0.0354863
0.0314468
0.0319454
0.0307814
0.0319714
0.0263302
0.0301186
0.0274745
0.0300737
0.0296941
0.0293887
0.0289798
0.0249186
0.0277831
0.0273479
0.0266758
0.0270571
0.0251758
0.0256715
0.0239796
0.0229602
0.0350118
0.0349095
0.034844
0.0339201
0.0321686
0.0321604
0.031739
0.0305123
0.0312174
0.0302104
0.029786
0.0286941
0.0296492
0.0295398
0.0290721
0.0283574
0.0276247
0.0270137
0.0282133
0.0273583
0.0268701
0.0264286
0.0257978
0.0248214
0.0259193
0.0243607
0.0248612
0.0244935
0.0239207
0.0234974
2.59102
0.0376944
0.0298147
0.0297961
0.0304613
0.0291643
0.0289879
0.0289109
0.0280892
0.026998
0.0256125
0.0266056
0.0263265
0.0264492
0.0264101
0.025733
0.0249288
0.0255771
0.0250083
0.0250454
0.0247962
2.60068
2.58997
0.0374108
0.0362292
0.0336844
0.0328752
0.030001
0.0296227
0.0303897
0.027872
0.0307201
0.0265639
0.0262337
0.0248
2.6099
2.60506
2.59442
2.5932
0.0371965
0.0353925
0.0341993
0.031046
0.0312583
0.029899
0.0289833
0.0291847
0.0276786
0.0279321
0.0282
0.0265538
0.0274921
0.0268451
0.0261235
0.0257476
0.0263379
0.0257145
0.0234696
2.61242
2.60615
2.60673
0.0346336
0.033895
0.0316797
0.0313306
0.0295551
0.0306137
0.0304762
0.0305865
0.0291247
0.02745
0.0268515
0.0258163
0.0267064
0.0277572
0.026576
0.0260207
0.0254122
0.024294
0.0229755
0.0240819
0.0233153
0.0216758
2.6015
2.60186
0.0364551
0.032588
0.031389
0.0304112
0.0280513
0.0301025
0.0272704
0.0291929
0.0288859
0.0275064
0.0270776
0.025152
0.0263786
0.0255556
0.0239983
0.0248786
0.025028
0.0232207
0.0224511
2.59769
0.032663
0.0318139
0.0314329