/*--------------------------------*- C++ -*----------------------------------*\
| =========                 |                                                 |
| \\      /  F ield         | OpenFOAM: The Open Source CFD Toolbox           |
|  \\    /   O peration     | Version:  v1906                                 |
|   \\  /    A nd           | Web:      www.OpenFOAM.com                      |
|    \\/     M anipulation  |                                                 |
\*---------------------------------------------------------------------------*/
FoamFile
{
    version     2.0;
    format      ascii;
    class       Cloud<passiveParticle>;
    location    "2.83/lagrangian/coalCloud1";
    object      coordinates;
}
// * * * * * * * * * * * * * * * * * * * * * * * * * * * * * * * * * * * * * //

53638
(
(0.320572 0.339714 0.0617429 0.277971) 19830 39212 1
(0.220726 0.389637 0.129014 0.260623) 19890 39331 1
(0.312538 0.01337 0.330361 0.343731) 19889 39447 1
(0.396875 0.00278744 0.298775 0.301562) 19949 39448 2
(0.488114 0.106292 0.255943 0.149651) 19769 39207 1
(0.116498 0.441751 0.421199 0.0205518) 19888 39445 2
(0.317501 0.228087 0.113163 0.341249) 19709 39090 1
(0.049328 0.475336 0.12339 0.351946) 19828 39326 2
(0.145074 0.427463 0.345979 0.0814839) 19828 39326 2
(0.256837 0.25121 0.120372 0.371582) 19828 39326 1
(0.427842 0.0117439 0.274335 0.286079) 19888 39327 2
(0.559896 0.175094 0.044958 0.220052) 19828 39208 2
(0.0523297 0.00970132 0.464134 0.473835) 19707 38968 2
(0.198867 0.233835 0.166731 0.400566) 19707 38968 2
(0.623668 0.140732 0.0474344 0.188166) 19888 39327 2
(0.760492 0.119754 0.0860613 0.0336929) 19707 39086 2
(0.0848179 0.457591 0.231033 0.226558) 19888 39327 1
(0.302033 0.348984 0.0381647 0.310819) 19827 39324 2
(0.750163 0.124919 0.112056 0.0128627) 19767 39206 1
(0.0570729 0.471464 0.296378 0.175086) 19706 39082 2
(0.497031 0.119101 0.251485 0.132384) 19888 39443 1
(0.349164 0.325418 0.0709221 0.254496) 19827 39206 1
(0.370737 0.0566924 0.314632 0.257939) 19888 39443 1
(0.251511 0.0465358 0.327709 0.374245) 19826 39204 2
(0.411239 0.0560009 0.23838 0.294381) 19948 39564 1
(0.277249 0.215627 0.145748 0.361376) 19887 39443 1
(0.427187 0.184389 0.102018 0.286407) 19887 39443 1
(0.143502 0.0269602 0.401289 0.428249) 19826 39322 1
(0.642871 0.121742 0.0568224 0.178565) 19887 39443 1
(0.580056 0.129636 0.209972 0.0803361) 19887 39444 2
(0.178391 0.410804 0.400984 0.00982062) 19826 39323 1
(0.0500658 0.311915 0.163052 0.474967) 19886 39441 1
(0.739956 0.119423 0.130022 0.0105984) 19886 39442 2
(0.0884458 0.455777 0.0107661 0.445011) 19886 39442 1
(0.0810877 0.433926 0.459456 0.0255297) 19946 39558 1
(0.763124 0.118438 0.0281293 0.0903088) 20006 39679 2
(0.0421932 0.478903 0.0624634 0.41644) 20007 39679 2
(0.337373 0.218032 0.113281 0.331313) 20005 39677 1
(0.279432 0.360284 0.226972 0.133313) 20007 39681 2
(0.775831 0.112085 0.0542628 0.0578219) 20006 39680 1
(0.183609 0.408196 0.288066 0.12013) 20066 39680 1
(0.430455 0.284773 0.00200347 0.282769) 20066 39798 2
(0.203452 0.398274 0.123489 0.274785) 20126 39915 2
(0.00989464 0.495053 0.442972 0.0520809) 20067 39801 1
(0.307739 0.011067 0.34613 0.335063) 20185 40035 2
(0.0963574 0.451821 0.350054 0.101768) 20186 40037 1
(0.432834 0.283583 0.166795 0.116788) 20186 40037 1
(0.497678 0.251161 0.235502 0.0156586) 20009 39686 1
(0.605907 0.197047 0.111093 0.0859533) 20246 40037 1
(0.741938 0.0157199 0.129031 0.113311) 20246 40153 1
(0.288587 0.198471 0.157235 0.355706) 20127 39919 1
(0.198495 0.400753 0.309304 0.0914491) 20425 40392 1
(0.0515695 0.474215 0.148177 0.326039) 20247 40039 1
(0.083092 0.458454 0.221048 0.237406) 20485 40627 2
(0.652911 0.0671884 0.173544 0.106356) 20306 40272 1
(0.638513 0.106436 0.0743073 0.180743) 20187 40038 1
(0.503022 0.248489 0.091238 0.157251) 20485 40630 1
(0.301005 0.253881 0.349497 0.0956163) 20545 40746 1
(0.108549 0.445726 0.0596638 0.386062) 20426 40510 2
(0.0112023 0.494399 0.141118 0.353281) 20307 40274 2
(0.0238617 0.488069 0.150272 0.337797) 20009 39686 1
(0.207121 0.39644 0.138849 0.257591) 20247 40158 1
(0.102374 0.382382 0.448813 0.0664312) 20307 40274 1
(0.0134569 0.493272 0.349389 0.143883) 20069 39686 1
(0.190108 0.284225 0.120721 0.404946) 20605 40749 2
(0.7986 0.0188468 0.1007 0.0818532) 20486 40632 2
(0.209329 0.395335 0.102361 0.292974) 20427 40512 2
(0.356208 0.0154564 0.306439 0.321896) 20307 40276 1
(0.847255 0.0763726 0.0590801 0.0172925) 20606 40870 1
(0.734552 0.128607 0.00411731 0.132724) 20427 40396 2
(0.154147 0.245973 0.176954 0.422926) 20427 40396 2
(0.763069 0.118465 0.000927139 0.117538) 20427 40514 2
(0.31259 0.343705 0.160127 0.183578) 20308 40160 1
(0.108498 0.0797566 0.445751 0.365994) 20606 40870 2
(0.355221 0.0567495 0.26564 0.322389) 20248 40041 2
(0.332688 0.333656 0.196598 0.137058) 20427 40514 2
(0.596517 0.0343455 0.201742 0.167396) 20547 40750 1
(0.0825799 0.45871 0.120297 0.338413) 20427 40514 2
(0.0337372 0.411884 0.0712473 0.483131) 20666 40988 1
(0.410919 0.0324136 0.262127 0.29454) 20487 40515 2
(0.268595 0.290865 0.0748374 0.365703) 20547 40634 2
(0.0936263 0.453187 0.282079 0.171107) 20607 40872 1
(0.481721 0.0186292 0.25914 0.24051) 20129 39921 1
(0.462574 0.0393972 0.229316 0.268713) 20487 40633 1
(0.431568 0.060224 0.284216 0.223992) 20547 40753 2
(0.275308 0.362346 0.305244 0.0571016) 20547 40752 2
(0.444946 0.176296 0.101231 0.277527) 20308 40278 1
(0.559857 0.1561 0.220072 0.0639712) 20787 41226 1
(0.358975 0.156549 0.163963 0.320513) 20308 40278 1
(0.206173 0.310937 0.0859764 0.396913) 20607 40871 1
(0.147249 0.426375 0.346502 0.0798736) 20607 40871 2
(0.514051 0.0518515 0.242975 0.191123) 20368 40398 2
(0.760111 0.103257 0.0166882 0.119945) 20428 40516 1
(0.298514 0.350743 0.256601 0.0941422) 20548 40755 1
(0.172794 0.413603 0.299521 0.114082) 20608 40874 1
(0.0518633 0.135917 0.474068 0.338151) 20368 40398 2
(0.0528465 0.0514964 0.473577 0.42208) 20309 40278 1
(0.128502 0.280914 0.435749 0.154835) 20309 40278 1
(0.570642 0.189777 0.0249023 0.214679) 20548 40636 2
(0.34475 0.327625 0.179479 0.148146) 20249 40043 1
(0.271199 0.196098 0.3644 0.168303) 20309 40278 1
(0.203454 0.34236 0.398273 0.0559129) 20788 41228 1
(0.381761 0.30912 0.000183435 0.308936) 20788 41112 1
(0.620556 0.115528 0.0741938 0.189722) 20548 40754 1
(0.190166 0.270185 0.404917 0.134732) 20369 40397 1
(0.756989 0.121506 0.000913236 0.120592) 20788 41112 1
(0.169554 0.415223 0.104156 0.311066) 20249 40162 1
(0.425601 0.287199 0.21887 0.068329) 20309 40162 1
(0.393409 0.241331 0.0619641 0.303295) 20608 40873 1
(0.502606 0.248697 0.0472252 0.201472) 20668 40992 2
(0.0336655 0.378468 0.483167 0.104699) 20728 41112 2
(0.0718718 0.225692 0.464064 0.238372) 20668 40993 2
(0.236618 0.113789 0.267902 0.381691) 20728 40993 2
(0.144654 0.427673 0.0785532 0.34912) 20309 40281 1
(0.0685232 0.0622857 0.403453 0.465738) 20668 40874 2
(0.362152 0.318924 0.111973 0.206951) 20489 40635 2
(0.0940498 0.263352 0.189623 0.452975) 20668 40992 1
(0.489115 0.255443 0.169199 0.0862433) 20549 40754 2
(0.103144 0.448428 0.151856 0.296572) 20789 41230 2
(0.30528 0.34736 0.0299651 0.317395) 20789 41114 1
(0.395167 0.302417 0.185164 0.117252) 20249 40161 2
(0.897956 0.0387369 0.0122853 0.0510221) 20489 40519 2
(0.463421 0.268289 0.265535 0.00275472) 20729 41114 1
(0.593893 0.179998 0.0230554 0.203054) 20489 40519 2
(0.287547 0.335337 0.0208897 0.356227) 20549 40638 2
(0.362752 0.225871 0.318624 0.0927534) 20489 40638 2
(0.565794 0.078367 0.138736 0.217103) 20369 40399 1
(0.0332905 0.483355 0.461971 0.0213836) 20729 40995 1
(0.402311 0.024847 0.273998 0.298845) 20429 40400 2
(0.315782 0.342109 0.224717 0.117392) 20489 40637 2
(0.370618 0.269938 0.0447532 0.314691) 20669 40994 1
(0.0873566 0.0426233 0.456322 0.413698) 20429 40519 2
(0.202264 0.266566 0.398868 0.132302) 21090 41827 1
(0.0715762 0.464212 0.312311 0.151901) 20370 40399 2
(0.291089 0.354456 0.0405209 0.313935) 20250 40161 2
(0.363197 0.318401 0.0922489 0.226153) 20490 40521 1
(0.541365 0.229318 0.0996254 0.129692) 20310 40280 2
(0.614655 0.14726 0.0454123 0.192672) 20910 41354 2
(0.71099 0.0368436 0.107661 0.144505) 20910 41354 2
(0.0230951 0.488452 0.339859 0.148593) 21151 41951 1
(0.0837326 0.458134 0.346739 0.111395) 21091 41832 1
(0.454808 0.272596 0.036348 0.236248) 20370 40402 1
(0.48302 0.222276 0.25849 0.0362138) 20370 40402 2
(0.372536 0.313732 0.304614 0.00911757) 21091 41713 1
(0.284658 0.357671 0.184828 0.172843) 20791 41234 2
(0.00427568 0.497862 0.0593468 0.438515) 21152 41950 2
(0.341616 0.175277 0.153916 0.329192) 20310 40164 2
(0.945511 0.0219502 0.00529427 0.0272444) 20010 39687 1
(0.444489 0.277755 0.133952 0.143804) 21271 42070 1
(0.120634 0.39147 0.0482124 0.439683) 20430 40520 1
(0.290185 0.144261 0.354907 0.210646) 20190 40045 2
(0.487807 0.0964737 0.256097 0.159623) 20130 39926 2
(0.184256 0.31153 0.407872 0.0963415) 21211 42070 2
(0.437165 0.122704 0.281417 0.158714) 20731 41118 2
(0.177914 0.167696 0.411043 0.243347) 20130 39926 2
(0.064309 0.467845 0.0915582 0.376287) 20431 40404 1
(0.260137 0.133972 0.23596 0.369931) 20731 40999 2
(0.203638 0.398181 0.182628 0.215553) 20250 40163 2
(0.594824 0.0729833 0.202588 0.129604) 20010 39688 2
(0.291763 0.354118 0.325905 0.0282138) 20371 40404 1
(0.437982 0.281009 0.229777 0.0512317) 20130 39925 2
(0.209044 0.395478 0.0822539 0.313224) 20491 40642 1
(0.0998073 0.450096 0.212169 0.237927) 20371 40404 1
(0.326223 0.299032 0.336888 0.0378569) 21033 41714 1
(0.0812913 0.30224 0.157114 0.459354) 21272 42190 1
(0.258779 0.370611 0.011922 0.358689) 20251 40163 2
(0.542084 0.183222 0.228958 0.0457356) 21152 41953 2
(0.230754 0.384623 0.23564 0.148983) 20251 40166 1
(0.34969 0.325155 0.0191263 0.306029) 20251 40047 1
(0.80288 0.00201695 0.0985602 0.0965433) 20311 40282 1
(0.0966082 0.451696 0.0586267 0.393069) 20913 41360 1
(0.594707 0.202647 0.149697 0.0529496) 20431 40522 2
(0.249618 0.15066 0.224531 0.375191) 21333 42193 2
(0.0680634 0.104241 0.361727 0.465968) 21333 42311 1
(0.0460192 0.142335 0.47699 0.334656) 20010 39688 2
(0.177794 0.411103 0.320395 0.0907083) 20070 39806 2
(0.158557 0.420721 0.384444 0.0362778) 20131 39928 1
(0.265184 0.367408 0.343815 0.0235934) 20973 41597 2
(0.102777 0.304259 0.144352 0.448611) 21033 41598 2
(0.0890709 0.455465 0.124203 0.331261) 20191 40047 1
(0.300489 0.349756 0.314721 0.0350349) 21334 42195 1
(0.251759 0.37412 0.21775 0.15637) 20733 41122 1
(0.00331824 0.498341 0.412918 0.0854234) 20251 40047 1
(0.510302 0.0461339 0.198715 0.244849) 20311 40166 2
(0.354851 0.196338 0.322575 0.126236) 20793 41241 2
(0.430494 0.0321297 0.252623 0.284753) 20853 41241 2
(0.539899 0.230051 0.183588 0.0464625) 20311 40284 2
(0.271052 0.364474 0.0827264 0.281748) 20853 41359 2
(0.795701 0.102149 0.0935777 0.00857156) 20251 40165 2
(0.560292 0.0978285 0.122025 0.219854) 19890 39331 2
(0.386291 0.2287 0.0781544 0.306854) 21214 42075 1
(0.233167 0.312185 0.383417 0.0712314) 20673 41003 2
(0.658161 0.17092 0.0177966 0.153123) 20131 39809 1
(0.501749 0.249125 0.201215 0.04791) 21094 41835 2
(0.315222 0.124186 0.342389 0.218203) 20191 40047 2
(0.368738 0.315631 0.304707 0.0109235) 21215 42075 2
(0.506989 0.0241434 0.246505 0.222362) 20191 40047 2
(0.326426 0.260147 0.336787 0.0766397) 21215 42078 2
(0.356961 0.219272 0.102247 0.32152) 19890 39331 2
(0.142644 0.428678 0.221468 0.207211) 21154 41956 2
(0.632989 0.0468659 0.13664 0.183506) 21094 41837 1
(0.0510437 0.283792 0.474478 0.190686) 20252 40165 1
(0.292409 0.353795 0.214479 0.139317) 21276 42199 1
(0.416344 0.291828 0.245412 0.0464159) 20372 40287 1
(0.323217 0.00254659 0.338392 0.335845) 20011 39687 1
(0.973473 0.00758287 0.0056807 0.0132636) 21034 41600 2
(0.786219 0.00672361 0.100167 0.106891) 20372 40405 1
(0.804249 0.0433762 0.0544993 0.0978755) 21034 41600 2
(0.31334 0.132787 0.210543 0.34333) 21034 41718 1
(0.284628 0.357686 0.278567 0.0791185) 21276 42080 1
(0.111928 0.444036 0.426375 0.0176605) 21276 42080 1
(0.453535 0.250354 0.273232 0.0228788) 20312 40287 2
(0.709158 0.145421 0.0992347 0.0461863) 21216 42080 1
(0.403201 0.298399 0.0501026 0.248297) 21276 42198 2
(0.289935 0.196252 0.355033 0.15878) 21337 42320 2
(0.368911 0.315544 0.299587 0.015957) 20252 40165 2
(0.915967 0.00413734 0.0378794 0.0420167) 21216 41961 2
(0.432352 0.283824 0.0262802 0.257544) 20252 40049 1
(0.232152 0.383924 0.0976483 0.286276) 21156 41842 1
(0.450268 0.269043 0.0058228 0.274866) 21035 41602 2
(0.473822 0.0579425 0.263089 0.205146) 20192 40046 1
(0.251772 0.374114 0.33184 0.0422738) 21156 41960 2
(0.265649 0.23349 0.367176 0.133686) 21278 42200 1
(0.0804754 0.0869534 0.372809 0.459762) 21277 42082 2
(0.0679008 0.46605 0.0951844 0.370865) 21338 42321 2
(0.873981 0.0630094 0.0457727 0.0172366) 19830 39330 2
(0.0221529 0.15502 0.488924 0.333903) 20252 40168 2
(0.130801 0.0626227 0.434599 0.371977) 20554 40767 2
(0.184186 0.407907 0.40333 0.00457737) 20433 40526 2
(0.263895 0.236783 0.13127 0.368053) 20252 40049 2
(0.416447 0.10425 0.291776 0.187527) 21218 42084 2
(0.063263 0.468369 0.238943 0.229425) 20132 39927 2
(0.538291 0.230855 0.0758629 0.154992) 20615 40888 1
(0.383604 0.100188 0.20801 0.308198) 20554 40648 2
(0.453479 0.0366094 0.27326 0.236651) 20132 39927 1
(0.641197 0.0213225 0.179402 0.158079) 20192 40049 2
(0.488484 0.186547 0.0692116 0.255758) 20976 41485 2
(0.302506 0.348747 0.266423 0.0823238) 21280 42207 1
(0.0958689 0.122259 0.329806 0.452066) 21158 41964 1
(0.432399 0.2838 0.0742863 0.209514) 20555 40769 1
(0.436048 0.0819983 0.281976 0.199978) 21159 41964 1
(0.0298388 0.485081 0.392294 0.0927865) 20616 40887 2
(0.606281 0.196859 0.0733443 0.123515) 20253 40167 2
(0.555739 0.112814 0.22213 0.109317) 20132 39930 2
(0.432816 0.0486484 0.283592 0.234944) 21281 42209 2
(0.385059 0.0616453 0.30747 0.245825) 20132 39930 2
(0.0964963 0.451752 0.436566 0.0151858) 21160 41966 2
(0.042005 0.478997 0.00442581 0.474572) 21343 42329 2
(0.332655 0.124635 0.333672 0.209037) 20314 40288 1
(0.876198 0.0619012 0.00466725 0.057234) 20978 41605 2
(0.245084 0.377458 0.3417 0.0357577) 20556 40768 2
(0.0113279 0.494336 0.463246 0.0310902) 20253 40051 1
(0.323195 0.237875 0.100528 0.338403) 21282 42210 1
(0.122036 0.385581 0.053401 0.438982) 21221 42089 1
(0.390583 0.304708 0.160151 0.144557) 20978 41607 2
(0.601506 0.0140974 0.18515 0.199247) 21100 41849 1
(0.233429 0.337452 0.045833 0.383285) 20132 39929 1
(0.396986 0.301507 0.199947 0.10156) 20496 40652 1
(0.0256346 0.101996 0.487183 0.385187) 20616 40887 1
(0.555239 0.125634 0.222381 0.096747) 20072 39811 2
(0.939471 0.0302645 0.00159517 0.0286693) 20072 39692 1
(0.08425 0.457875 0.33712 0.120755) 21040 41728 2
(0.244565 0.377717 0.0153581 0.362359) 21345 42333 2
(0.193766 0.403117 0.0678886 0.335228) 20616 40771 1
(0.946997 0.0196007 0.0069007 0.0265014) 20072 39810 1
(0.44437 0.236019 0.041796 0.277815) 20979 41491 2
(0.578135 0.182557 0.0283758 0.210933) 20193 39932 2
(0.446004 0.276998 0.233237 0.0437606) 20980 41612 1
(0.128722 0.283803 0.435639 0.151837) 21346 42335 1
(0.0506929 0.414071 0.474654 0.0605821) 21163 41972 1
(0.133245 0.433377 0.0442674 0.38911) 21102 41854 1
(0.563063 0.160463 0.0580053 0.218469) 19951 39570 1
(0.284498 0.0457692 0.311982 0.357751) 21162 41854 2
(0.112606 0.0827979 0.443697 0.360899) 20194 40050 1
(0.756371 0.0474719 0.0743425 0.121814) 20676 40890 2
(0.498437 0.250781 0.0519975 0.198784) 20798 41132 1
(0.472943 0.263529 0.0825396 0.180989) 20133 39813 1
(0.165064 0.417468 0.0393338 0.378134) 21348 42339 2
(0.815728 0.0770693 0.0150665 0.0921358) 20859 41371 1
(0.702086 0.069942 0.0790151 0.148957) 21225 41979 2
(0.203541 0.308537 0.39823 0.0896922) 21287 42218 1
(0.250593 0.294993 0.0797104 0.374703) 20798 41132 2
(0.490244 0.243696 0.254878 0.0111824) 21226 42097 1
(0.38616 0.143348 0.30692 0.163572) 20012 39692 2
(0.734472 0.0171586 0.115605 0.132764) 20133 39813 2
(0.0412626 0.479369 0.337635 0.141733) 20072 39810 2
(0.821953 0.00927825 0.0890234 0.0797451) 20738 41129 1
(0.527044 0.125628 0.236478 0.11085) 20860 41371 1
(0.45978 0.27011 0.142256 0.127854) 21165 41976 2
(0.02818 0.149141 0.48591 0.336769) 20738 41132 2
(0.465039 0.267481 0.224028 0.0434526) 21227 42102 1
(0.558232 0.220884 0.0382125 0.182671) 20616 40889 2
(0.0115562 0.494222 0.328076 0.166146) 20921 41492 2
(0.160923 0.254202 0.165337 0.419538) 19830 39212 2
(0.529579 0.186242 0.0489686 0.23521) 20738 41131 1
(0.0398779 0.155271 0.480061 0.32479) 20861 41373 1
(0.309692 0.345154 0.154248 0.190906) 20133 39931 2
(0.600156 0.199922 0.195732 0.00418969) 21351 42347 2
(0.34834 0.294885 0.0309456 0.32583) 21044 41738 1
(0.399418 0.0289358 0.271355 0.300291) 21105 41741 2
(0.830579 0.0847107 0.0498901 0.0348205) 21290 42224 2
(0.68759 0.153225 0.156205 0.00298026) 21045 41741 2
(0.0833934 0.458303 0.237136 0.221168) 20739 41015 1
(0.697354 0.151323 0.0700303 0.0812928) 19770 39209 2
(0.12395 0.377412 0.438025 0.0606136) 21230 42108 2
(0.241902 0.00645232 0.372596 0.379049) 20073 39812 1
(0.910564 0.0447178 0.00680534 0.0379124) 20984 41619 2
(0.206608 0.396696 0.310369 0.086327) 21045 41622 1
(0.625035 0.187482 0.142768 0.0447148) 21292 42231 1
(0.531481 0.23426 0.021908 0.212352) 20740 41136 1
(0.105157 0.447421 0.115177 0.332245) 20923 41380 1
(0.179922 0.410039 0.144185 0.265854) 21168 41984 2
(0.782227 0.108886 0.097503 0.0113833) 20557 40770 2
(0.0449714 0.194154 0.283361 0.477514) 20073 39812 1
(0.190814 0.202837 0.201756 0.404593) 20923 41380 2
(0.234716 0.158846 0.223797 0.382642) 20557 40772 1
(0.139196 0.0478852 0.430402 0.382517) 20558 40772 1
(0.495001 0.2525 0.212645 0.0398543) 21047 41742 2
(0.6479 0.17605 0.14529 0.0307602) 20665 40868 1
(0.207221 0.162946 0.39639 0.233444) 20619 40893 1
(0.574862 0.212569 0.119391 0.0931776) 21170 41988 2
(0.0376913 0.419442 0.481154 0.0617126) 20074 39812 1
(0.529164 0.235418 0.101838 0.13358) 20986 41505 1
(0.429728 0.283625 0.285136 0.00151063) 20864 41382 2
(0.352257 0.288906 0.323872 0.0349651) 20013 39694 2
(0.370068 0.146621 0.168345 0.314966) 20802 41140 2
(0.562047 0.0178403 0.201136 0.218977) 20639 40816 2
(0.373918 0.182909 0.130132 0.313041) 20497 40653 1
(0.0878039 0.108248 0.456098 0.34785) 20743 41139 1
(0.21353 0.154564 0.238671 0.393235) 20989 41629 1
(0.263469 0.368265 0.188887 0.179379) 21112 41873 2
(0.0259736 0.487013 0.254178 0.232835) 21050 41750 2
(0.3274 0.3363 0.333509 0.00279047) 20621 40900 1
(0.435345 0.282327 0.157147 0.125181) 20866 41383 2
(0.0506744 0.307616 0.167047 0.474663) 21051 41752 1
(0.325731 0.337135 0.164409 0.172726) 20135 39817 1
(0.778804 0.110598 0.0939275 0.0166706) 20498 40653 2
(0.0183797 0.305376 0.49081 0.185434) 20744 41144 2
(0.0248751 0.186777 0.300785 0.487562) 20867 41387 1
(0.0464585 0.476771 0.264143 0.212628) 21176 42000 2
(0.00632429 0.496838 0.0206054 0.476232) 21115 41761 1
(0.51846 0.0879524 0.24077 0.152818) 19892 39451 1
(0.266484 0.244863 0.121895 0.366758) 20991 41515 2
(0.323262 0.338369 0.279526 0.0588436) 20992 41633 2
(0.355536 0.247109 0.0751226 0.322232) 20868 41271 2
(0.196839 0.225165 0.176416 0.401581) 20499 40657 1
(0.00510269 0.497449 0.00533 0.492119) 20621 40899 2
(0.643095 0.178452 0.117099 0.0613539) 20869 41391 2
(0.0939724 0.453014 0.25392 0.199093) 20014 39693 2
(0.379236 0.00891913 0.301463 0.310382) 20622 40783 2
(0.671263 0.148483 0.164369 0.015886) 20809 41270 1
(0.131122 0.434439 0.122202 0.312237) 20810 41275 1
(0.0275545 0.28265 0.486223 0.203573) 20872 41395 1
(0.237145 0.282496 0.0989316 0.381428) 20747 41149 1
(0.366041 0.0546282 0.262351 0.316979) 19953 39574 1
(0.259422 0.361079 0.00920967 0.370289) 20685 40908 2
(0.418932 0.278578 0.290534 0.0119555) 20137 39937 1
(0.113112 0.301398 0.142046 0.443444) 20014 39695 1
(0.116351 0.441824 0.371227 0.0705979) 19954 39577 1
(0.369301 0.315349 0.307146 0.0082032) 20439 40538 2
(0.0727055 0.463647 0.022606 0.441041) 20563 40782 2
(0.640485 0.179757 0.132857 0.0469001) 20624 40905 2
(0.705351 0.0238717 0.147324 0.123453) 19770 39212 2
(0.540444 0.229778 0.175798 0.0539803) 19953 39456 1
(0.3686 0.3157 0.00308484 0.312615) 20440 40541 1
(0.145772 0.256415 0.427114 0.170699) 20440 40541 2
(0.351376 0.324312 0.0325666 0.291745) 20686 41028 2
(0.694025 0.152987 0.0318624 0.121125) 20936 41406 1
(0.120069 0.439965 0.336283 0.103682) 20014 39695 2
(0.467533 0.266234 0.162311 0.103922) 19954 39577 1
(0.116607 0.441697 0.133159 0.308538) 20812 41278 2
(0.568089 0.215955 0.0344626 0.181493) 20015 39695 2
(0.515721 0.24214 0.111832 0.130308) 20379 40417 2
(0.206247 0.313109 0.083767 0.396876) 19892 39453 1
(0.149235 0.285299 0.425383 0.140083) 20627 40909 1
(0.638683 0.0468407 0.133818 0.180659) 20751 41157 1
(0.254445 0.327468 0.0453096 0.372777) 20689 40916 2
(0.356003 0.321999 0.0132822 0.308716) 20380 40419 2
(0.790851 0.104575 0.00877348 0.0958012) 20690 40918 1
(0.729838 0.0311621 0.103919 0.135081) 20459 52756 1
(0.160443 0.213661 0.206118 0.419778) 20752 41041 2
(0.55136 0.22432 0.174868 0.0494521) 20816 41168 1
(0.510791 0.081007 0.163597 0.244604) 19954 39576 1
(0.427148 0.286426 0.254248 0.0321778) 19831 39214 1
(0.011073 0.494464 0.28934 0.205123) 20258 40180 1
(0.126395 0.436803 0.0614621 0.37534) 20442 40426 1
(0.573104 0.213448 0.0682577 0.14519) 20442 40544 2
(0.50459 0.0166622 0.231043 0.247705) 20566 40672 2
(0.18399 0.402303 0.00570202 0.408005) 20504 40549 2
(0.800998 0.0500138 0.0995011 0.0494873) 20443 40544 1
(0.0559792 0.24231 0.47201 0.229701) 20506 40669 1
(0.126179 0.43691 0.285918 0.150992) 19771 39214 1
(0.660479 0.137802 0.169761 0.0319591) 20631 40917 1
(0.816798 0.0913752 0.000225702 0.0916009) 20631 40919 1
(0.233224 0.131776 0.383388 0.251612) 20258 40180 2
(0.32549 0.337255 0.1759 0.161355) 20443 40428 1
(0.0625154 0.468742 0.0755116 0.393231) 20381 40305 1
(0.642528 0.178736 0.170345 0.00839148) 20506 40671 2
(0.307305 0.346348 0.0232242 0.323123) 20506 40553 1
(0.0309238 0.0980829 0.386455 0.484538) 20631 40801 2
(0.0222441 0.488878 0.32362 0.165258) 19954 39576 2
(0.244497 0.133757 0.243994 0.377752) 20445 40550 1
(0.623319 0.128946 0.0593948 0.18834) 20696 40930 2
(0.525445 0.237277 0.0471639 0.190113) 20509 40678 1
(0.273196 0.363402 0.127574 0.235828) 19893 39337 1
(0.918895 0.0405526 0.0354481 0.00510453) 20635 40927 2
(0.698623 0.150688 0.0156543 0.135034) 20635 40927 2
(0.211172 0.394414 0.0298665 0.364547) 20446 40434 1
(0.40274 0.29863 0.120916 0.177714) 19832 39332 2
(0.47532 0.26234 0.255822 0.00651768) 20323 40309 1
(0.118147 0.440926 0.125346 0.315581) 20577 40813 1
(0.46844 0.126075 0.139705 0.26578) 20450 40560 1
(0.622638 0.0996831 0.0889977 0.188681) 20261 40185 1
(0.0218398 0.48908 0.381057 0.108023) 20323 40308 2
(0.235729 0.382136 0.215498 0.166637) 20386 40315 1
(0.693245 0.0526641 0.153378 0.100713) 20199 40060 1
(0.456308 0.271846 0.0218596 0.249987) 19894 39339 1
(0.494972 0.227681 0.252514 0.024833) 20451 40560 1
(0.0903521 0.291599 0.163225 0.454824) 20577 40694 2
(0.252732 0.373634 0.229744 0.14389) 20200 40065 1
(0.932345 0.0338273 0.0191046 0.0147227) 20388 40437 2
(0.0875464 0.265358 0.190868 0.456227) 20450 40442 2
(0.320774 0.339613 0.216259 0.123354) 19894 39457 2
(0.134957 0.331154 0.432522 0.101367) 20326 40312 1
(0.128973 0.435514 0.375153 0.060361) 20451 40444 1
(0.36347 0.318265 0.18453 0.133735) 20388 40319 1
(0.12159 0.439205 0.415297 0.0239082) 20199 40060 2
(0.359643 0.0732935 0.320179 0.246885) 20328 40316 1
(0.0699686 0.465016 0.160704 0.304312) 20390 40323 1
(0.416084 0.155988 0.291958 0.13597) 20393 40445 1
(0.448516 0.0501453 0.275742 0.225597) 20458 40574 1
(0.0397278 0.251605 0.228531 0.480136) 20390 40323 2
(0.0592571 0.281398 0.470371 0.188973) 20139 39941 1
(0.7162 0.119688 0.0222117 0.1419) 20201 40066 1
(0.0162871 0.491856 0.116285 0.375571) 20200 40064 2
(0.236102 0.259255 0.381949 0.122693) 20396 40454 2
(0.0900725 0.454964 0.411207 0.0437571) 20266 40195 2
(0.579261 0.110174 0.100196 0.21037) 20395 40333 2
(0.140321 0.429839 0.227408 0.202431) 19896 39459 2
(0.521447 0.221129 0.0181475 0.239276) 20267 40079 2
(0.754516 0.0604576 0.0622844 0.122742) 20333 40328 1
(0.797379 0.0472271 0.0540832 0.10131) 20336 40334 1
(0.355643 0.322178 0.317952 0.00422642) 19833 39218 1
(0.0282651 0.485867 0.300453 0.185414) 20204 39954 1
(0.0665141 0.466743 0.0134264 0.453317) 20078 39820 2
(0.323838 0.133729 0.338081 0.204351) 20209 40083 2
(0.152286 0.148985 0.423857 0.274872) 20144 39951 1
(0.23927 0.113777 0.380365 0.266588) 19772 39216 2
(0.62754 0.18623 0.0912851 0.094945) 20143 39949 2
(0.458995 0.270502 0.0476857 0.222817) 19834 39220 1
(0.00756027 0.122411 0.373809 0.49622) 20206 39958 2
(0.0161457 0.491927 0.190747 0.30118) 20276 40213 2
(0.378084 0.310958 0.0186113 0.292347) 19834 39220 1
(0.214014 0.392993 0.145679 0.247314) 20210 40082 2
(0.225075 0.350546 0.387463 0.0369168) 20213 40091 2
(0.074329 0.462835 0.393436 0.0693997) 20208 39962 1
(0.502325 0.139694 0.109144 0.248838) 20147 39959 1
(0.226762 0.386619 0.241378 0.145241) 20217 40099 1
(0.238223 0.380889 0.3588 0.0220886) 19771 39213 2
(0.0467916 0.224111 0.252493 0.476604) 20212 39970 2
(0.231812 0.00170461 0.384094 0.382389) 20084 39835 2
(0.313702 0.343149 0.116692 0.226457) 20147 39959 2
(0.274689 0.362655 0.238248 0.124407) 19835 39222 1
(0.700941 0.13963 0.14953 0.00989945) 20151 39965 1
(0.559443 0.220279 0.0100865 0.210192) 20153 39972 1
(0.296127 0.351936 0.0344646 0.317472) 20081 39710 1
(0.237724 0.0419326 0.339205 0.381138) 20151 39849 2
(0.0262656 0.486867 0.14135 0.345517) 20155 39973 2
(0.166712 0.416644 0.380647 0.0359968) 19957 39582 2
(0.326138 0.023307 0.336931 0.313624) 20021 39707 1
(0.0921431 0.294118 0.15981 0.453928) 20152 39851 2
(0.168026 0.157191 0.258796 0.415987) 20020 39707 1
(0.338763 0.0211091 0.309509 0.330618) 20154 39855 2
(0.0142284 0.315636 0.17725 0.492886) 20083 39714 2
(0.0677981 0.0471281 0.418973 0.466101) 20156 39859 2
(0.379246 0.310377 0.128063 0.182314) 19775 39222 1
(0.79103 0.0920932 0.0123919 0.104485) 20095 39856 1
(0.623715 0.188143 0.10104 0.0871025) 20023 39711 2
(0.490074 0.0816659 0.173297 0.254963) 19775 39221 1
(0.0816693 0.459165 0.412393 0.0467723) 19773 39217 2
(0.338131 0.330935 0.0986278 0.232307) 20025 39715 2
(0.630061 0.0990875 0.184969 0.0858819) 20029 39723 1
(0.295728 0.205638 0.352136 0.146498) 20035 39738 2
(0.806747 0.0966265 0.0842142 0.0124122) 20028 39605 1
(0.389036 0.305482 0.0239432 0.281539) 19775 39219 2
(0.085461 0.359787 0.457269 0.0974825) 19961 39591 2
(0.243314 0.378343 0.0134768 0.364866) 19771 39095 1
(0.441139 0.27943 0.0837312 0.195699) 19775 39219 2
(0.115768 0.442116 0.361637 0.0804787) 20028 39721 2
(0.427781 0.28611 0.0697493 0.21636) 20028 39605 1
(0.60302 0.0576988 0.19849 0.140791) 19959 39587 2
(0.100442 0.449779 0.0906508 0.359128) 20037 39739 2
(0.0268511 0.486574 0.144831 0.341744) 19968 39605 1
(0.365519 0.317241 0.12757 0.189671) 19776 39221 2
(0.364013 0.317994 0.0546831 0.26331) 19773 39217 2
(0.0696282 0.0903918 0.374794 0.465186) 19966 39600 1
(0.31415 0.217168 0.342925 0.125757) 19976 39621 2
(0.268314 0.365843 0.0825765 0.283267) 19773 39099 1
(0.236119 0.38194 0.129561 0.25238) 19960 39586 2
(0.23944 0.284854 0.0954258 0.38028) 19970 39608 1
(0.476184 0.261908 0.190809 0.071099) 19978 39622 2
(0.320688 0.339656 0.0190001 0.320656) 19969 39488 1
(0.0511385 0.322268 0.152162 0.474431) 19775 39103 2
(0.365345 0.190074 0.127253 0.317328) 23012 45523 2
(0.443554 0.1321 0.278223 0.146123) 22893 45406 2
(0.340067 0.329967 0.328422 0.0015443) 22772 45163 2
(0.418596 0.0664614 0.290702 0.224241) 22712 45044 1
(0.362256 0.318872 0.219847 0.0990256) 22955 45528 2
(0.260623 0.0869724 0.369689 0.282716) 23017 45649 1
(0.0898737 0.205136 0.455063 0.249927) 22895 45410 2
(0.143993 0.224231 0.203773 0.428004) 23016 45531 2
(0.827312 0.0574891 0.0288549 0.0863439) 22834 45170 2
(0.531384 0.124928 0.10938 0.234308) 22834 45170 2
(0.19665 0.086193 0.401675 0.315482) 22774 45170 2
(0.143857 0.37625 0.428072 0.0518221) 23081 45776 1
(0.545757 0.227122 0.181377 0.0457442) 22533 44692 1
(0.0177629 0.491119 0.241892 0.249227) 22655 44934 1
(0.16462 0.41769 0.18004 0.23765) 22838 45297 1
(0.124687 0.437656 0.32781 0.109846) 22594 44694 1
(0.331076 0.328793 0.00566861 0.334462) 22777 45057 2
(0.143963 0.263658 0.16436 0.428019) 22533 44573 2
(0.242908 0.371277 0.00726922 0.378546) 22899 45417 1
(0.39588 0.30206 0.0475931 0.254467) 22717 45054 2
(0.0683023 0.125843 0.340006 0.465849) 22900 45419 1
(0.206808 0.396596 0.0544621 0.342134) 22413 44454 1
(0.165709 0.213299 0.417145 0.203846) 22474 44572 1
(0.304106 0.192367 0.15558 0.347947) 23084 45666 2
(0.544634 0.227683 0.101074 0.126608) 23085 45787 1
(0.318571 0.243571 0.097143 0.340714) 22839 45180 2
(0.240111 0.379944 0.196807 0.183137) 22534 44693 2
(0.435812 0.282094 0.135346 0.146748) 22595 44814 2
(0.0136532 0.493173 0.43708 0.0560938) 22778 45177 2
(0.330249 0.0791901 0.255685 0.334875) 22595 44696 2
(0.469976 0.106283 0.158729 0.265012) 22657 44937 1
(0.197861 0.40107 0.298406 0.102664) 22840 45182 1
(0.242765 0.378617 0.0641135 0.314504) 23024 45547 1
(0.831105 0.0844475 0.0449399 0.0395076) 22963 45426 1
(0.474293 0.0744594 0.262853 0.188394) 23025 45665 1
(0.241326 0.379337 0.182251 0.197086) 22352 44332 2
(0.0712855 0.23437 0.229987 0.464357) 23086 45788 1
(0.33438 0.0486842 0.33281 0.284126) 22536 44695 1
(0.223819 0.38809 0.211058 0.177032) 22413 44453 2
(0.231696 0.384152 0.185711 0.198442) 22963 45544 2
(0.191895 0.404052 0.394739 0.00931337) 22903 45426 1
(0.380621 0.165628 0.309689 0.144061) 23026 45670 2
(0.157779 0.42111 0.0329514 0.388159) 22965 45549 1
(0.924797 0.0164064 0.0211953 0.0376017) 22475 44458 2
(0.527615 0.0233781 0.236193 0.212815) 22720 45063 2
(0.267567 0.366216 0.224433 0.141783) 22597 44818 2
(0.116037 0.441981 0.367258 0.0747237) 23088 45792 2
(0.213095 0.189969 0.393453 0.203484) 22782 45183 1
(0.820228 0.00680624 0.0830797 0.089886) 22904 45427 1
(0.0405696 0.479715 0.0442664 0.435449) 22905 45430 1
(0.269235 0.226924 0.138459 0.365383) 22232 43976 2