/*--------------------------------*- C++ -*----------------------------------*\
| =========                 |                                                 |
| \\      /  F ield         | OpenFOAM: The Open Source CFD Toolbox           |
|  \\    /   O peration     | Version:  v1906                                 |
|   \\  /    A nd           | Web:      www.OpenFOAM.com                      |
|    \\/     M anipulation  |                                                 |
\*---------------------------------------------------------------------------*/
FoamFile
{
    version     2.0;
    format      ascii;
    class       scalarField;
    location    "2.83/lagrangian/coalCloud1";
    object      Cp;
}
// * * * * * * * * * * * * * * * * * * * * * * * * * * * * * * * * * * * * * //


53638
(
710
710
710
710
710
710
710
710
710
710
710
710
710
710
710
710
710
710
710
710
710
710
710
710
710
710
710
710
710
710
710
710
710
710
710
710
710
710
710
710
710
710
710
710
710
710
710
710
710
710
710
710
710
710
710
710
710
710
710
710
710
710
710
710
710
710
710
710
710
710
710
710
710
710
710
710
710
710
710
710
710
710
710
710
710
710
710
710
710
710
710
710
710
710
710
710
710
710
710
710
710
710
710
710
710
710
710
710
710
710
710
710
710
710
710
710
710
710
710
710
710
710
710
710
710
710
710
710
710
710
710
710
710
710
710
710
710
710
710
710
710
710
710
710
710
710
710
710
710
710
710
710
710
710
710
710
710
710
710
710
710
710
710
710
710
710
710
710
710
710
710
710
710
710
710
710
710
710
710
710
710
710
710
710
710
710
710
710
710
710
710
710
710
710
710
710
710
710
710
710
710
710
710
710
710
710
710
710
710
710
710
710
710
710
710
710
710
710
710
710
710
710
710
710
710
710
710
710
710
710
710
710
710
710
710
710
710
710
710
710
710
710
710
710
710
710
710
710
710
710
710
710
710
710
710
710
710
710
710
710
710
710
710
710
710
710
710
710
710
710
710
710
710
710
710
710
710
710
710
710
710
710
710
710
710
710
710
710
710
710
710
710
710
710
710
710
710
710
710
710
710
710
710
710
710
710
710
710
710
710
710
710
710
710
710
710
710
710
710
710
710
710
710
710
710
710
710
710
710
710
710
710
710
710
710
710
710
710
710
710
710
710
710
710
710
710
710
710
710
710
710
710
710
710
710
710
710
710
710
710
710
710
710
710
710
710
710
710
710
710
710
710
710
710
710
710
710
710
710
710
710
710
710
710
710
710
710
710
710
710
710
710
710
710
710
710
710
710
710
710
710
710
710
710
710
710
710
710
710
710
710
710
710
710
710
710
710
710
710
710
710
710
710
710
710
710
710
710
710
710
710
710
710
710
710
710
710
710
710
710
710
710
710
710
710
710
710
710
710
710
710
710
710
710
710
710
710
710
710
710
710
710
710
710
710
710
710
710
710
710
710
710
710
710
710
710
710
710
710
710
710
710
710
710
710
710
710
710
710
710
710
710
710
710
710
710
710
710
710
710
710
710
710
710
710
710
710
710
710
710
710
710
710
710
710
710
710
710
710
710
710
710
710
710
710
710
710
710
710
710
710
710
710
710
710
710
710
710
710
710
710
710
710
710
710
710
710
710
710
710
710
710
710
710
710
710
710
710
710
710
710
710
710
710
710
710
710
710
710
710
710
710
710
710
710
710
710
710
710
710
710
710
710
710
710
710
710
710
710
710
710
710
710
710
710
710
710
710
710
710
710
710
710
710
710
710
710
710
710
710
710
710
710
710
710
710
710
710
710
710
710
710
710
710
710
710
710
710
710
710
710
710
710
710
710
710
710
710
710
710
710
710
710
710
710
710
710
710
710
710
710
710
710
710
710
710
710
710
710
710
710
710
710
710
710
710
710
710
710
710
710
710
710
710
710
710
710
710
710
710
710
710
710
710
710
710
710
710
710
710
710
710
710
710
710
710
710
710
710
710
710
710
710
710
710
710
710
710
710
710
710
710
710
710
710
710
710
710
710
710
710
710
710
710
710
710
710
710
710
710
710
710
710
710
710
710
710
710
710
710
710
710
710
710
710
710
710
710
710
710
710
710
710
710
710
710
710
710
710
710
710
710
710
710
710
710
710
710
710
710
710
710
710
710
710
710
710
710
710
710
710
710
710
710
710
710
710
710
710
710
710
710
710
710
710
710
710
710
710
710
710
710
710
710
710
710
710
710
710
710
710
710
710
710
710
710
710
710
710
710
710
710
710
710
710
710
710
710
710
710
710
710
710
710
710
710
710
710
710
710
710
710
710
710
710
710
710
710
710
710
710
710
710
710
710
710
710
710
710
710
710
710
710
710
710
710
710
710
710
710
710
710
710
710
710
710
710
710
710
710
710
710
710
710
710
710
710
710
710
710
710
710
710
710
710
710
710
710
710
710
710
710
710
710
710
710
710
710
710
710
710
710
710
710
710
710
710
710
710
710
710
710
710
710
710
710
710
710
710
710
710
710
710
710
710
710
710
710
710
710
710
710
710
710
710
710
710
710
710
710
710
710
710
710
710
710
710
710
710
710
710
710
710
710
710
710
710
710
710
710
710
710
710
710
710
710
710
710
710
710
710
710
710
710
710
710
710
710
710
710
710
710
710
710
710
710
710
710
710
710
710
1657.12
710
710
710
710
710
710
1651.54
710
710
710
710
1649.73
710
1653.13
710
710
1673.79
1714.94
710
1684.67
1655.46
1654.75
1651.55
1677.98
1678.07
1744.25
710
710
1658.45
1674.02
1660.98
1685.49
1688.05
1666.18
1657.15
1655.97
710
710
710
1657.31
1671.66
1663.29
1678.56
1669.11
1654.41
1649.75
1674.52
1679.51
1662.54
1756.33
710
710
1663.45
1664.79
1666.74
1654.57
1662.55
710
1684.09
1676.26
1716.61
1661.46
710
1669.62
1658.76
1721.02
1694.06
1780.88
710
710
710
710
1738.54
1652.02
1659.07
1665.64
1662.68
1685.97
710
710
1694.82
1657.94
1659.88
1707.88
1729.44
1656.68
1705.22
1655.72
1669.54
1742.4
1668.24
1659.53
1709.52
1708.88
1710.67
1707.13
1667.41
1738.46
1687.71
710
710
1712.11
1696.04
1669.6
1660.65
1667.68
1682.62
1655.94
1771.33
1706.08
1705.04
1740.45
710
1659.57
1657.2
1691.9
1666.9
1690.54
1702.95
1700.49
1775.32
1681.37
710
710
710
1692.62
1663.98
1685.78
1649.06
1699.31
1646.54
1669.68
1715.18
1662.39
1655.11
1681.87
1692.86
1669.02
1682.57
1663.18
1686.47
1704.99
1670.19
1695.41
1655.05
1704.58
1673.03
1649.25
1704.13
1673.14
1722.27
1669.77
1688.06
1650.36
1703.99
1713.41
1668.29
1659.67
1702.06
1719.01
1669
1686.33
1687.46
1690.24
1685.62
710
1668.37
1656.93
1684.69
1707.88
1699.56
1702.87
1683.27
1657.86
1694.14
1675.32
1666.53
1673.35
1703.61
1653.17
1657.76
1681.25
1721.76
1716.81
1682.47
1693.75
1694.52
1677.98
1751
1690.74
1645.24
1673.3
1675.46
710
1676.92
1668.71
1711.53
1675.38
1694.02
1687.26
1681.45
1687.18
1696.36
1708.87
1762.96
1666.86
1701.16
1646.99
1683.1
1671.98
1663.24
1687.55
1668.25
1643.82
1699.01
710
1661.23
1706.1
1681.89
1664
1725.8
1697.87
1663.6
1658.04
1703.45
1709.03
1670.05
1702.52
1701.36
1699.28
1692.03
1648.95
1676.73
1675.11
1665.46
710
1685.42
1694.09
1666.27
1679.41
1677.38
1647.83
1655.66
1681.23
1700.2
1657.42
1653.85
1696.42
1678.56
1674.28
1681.39
1666.91
1681.42
1701.1
1738.31
1683.52
1677.64
1653.1
1775
1675.05
1648.34
1708.61
1711.17
1665.55
1706.31
1703.38
1693.39
1701.41
1706.73
1690.12
1652.6
1665.15
1652.7
1669.86
1694.9
710
1661.74
1702.89
1749.66
1681.63
1699.61
1654.08
1693.36
1693.3
1692.45
1665.07
1659.61
710
710
1682.52
1648.52
1718.41
1720.07
1706.85
1721.08
1671.54
1699.75
1692.97
1677.53
1690.04
1679.9
1668.55
1644.94
1652.39
1709.65
1675.25
1702.9
1679.93
1650.76
1660.24
1684.25
1684.84
1700.9
1663.16
1698.78
1670.42
1668.89
1676.57
1663.41
1682.31
1653.62
1665.06
1653.61
1664
710
710
1655.18
1665.71
1706.16
1661.36
1697.05
1691.18
1663.58
1703.37
1700.23
1688.38
1731.55
1698.19
1655.81
1660.44
1662.56
1672.67
1639.06
1638.97
1657.68
1657.05
1729.45
1702.14
1682.86
1649.01
1669.75
1748.42
1709.44
1647.26
1704.92
1679.51
1647.28
1672.86
1675.89
710
1661.65
1662.6
1673.23
1668.05
1703.18
1677.63
1694.88
1707.49
1666.27
1700.65
1685.88
1690.22
1686.01
1675.08
1694.84
1682.8
1674.19
1677.37
1682.23
1649.99
1653.98
1654.15
710
710
1689.99
1648.18
1691.75
1655.68
1654.9
1717.96
1722.41
1686.57
1651.49
1705.73
1690.6
1652.98
1694.25
1665.8
1688.18
1687.35
1675.58
1673.73
1651.59
1649.9
1678.28
710
1648.36
1712.64
1696.2
1665.13
1680.46
1664.58
1700.08
1697.34
1701.52
1699.17
1671.54
1690.92
1682
1679.57
1679.99
1684.7
1668.42
1684.79
1656.79
1687.47
1640.66
1645.69
1644.18
1671.73
1652.02
1691.67
1653.05
1691.67
1660.17
1710.03
1708.51
1707.43
1696.03
1671.36
1693.88
1677.46
1664.04
1665.87
1640.29
1658.77
1649.92
1649.88
1647.3
1673.15
1660.91
710
710
710
1668.25
1673.44
1700.55
1704.65
1726.58
1700.83
1711.26
1698.97
1704.96
1692.57
1691.21
1691.59
1689.1
1665.06
1641.66
1693.44
1673.71
1674.24
1643.53
1671.61
1665.15
1658.4
1668.3
1676.48
1690.17
1774.71
1648.21
1666.15
1741.31
1652.81
1655.9
1702.68
1687.26
1718.09
1690.56
1699.91
1743.12
1689.61
1688.12
1683.76
1684.19
1679.92
1678.16
1675.8
710
1659.87
1717.53
1685.49
1705
1720.37
1679.08
1712.81
1706.8
1685.26
1684.86
1695.44
1667.25
1698.42
1664.85
1718.02
1694.05
1686.42
1690.47
1715.97
1702.44
1653.15
1714.52
1699.05
1708.38
1706.83
1651.27
1702.79
1682.64
1714.85
1705.2
1683.02
1659.91
1695.82
1687.09
1685.86
1703.14
1685.97
1662.55
1667.69
1648.22
1646.95
1667.99
1678.18
1709.51
1692.14
1672.37
1705.97
1700.46
1706.78
1705.84
1689.89
1685.34
1691.74
1692.1
1653.83
1684.28
1674.9
1683.83
1681.68
1659.95
710
1667.46
1650.14
1663.81
1649.79
1719.45
1648.92
1673.88
1702.4
1707.06
1661.89
1671.76
1700.16
1684.64
1697.69
1689.09
1698.84
1675.38
1686.34
1674.18
1672.39
1668
1669.44
1654.3
1666.34
1662.7
1674.33
1704.32
1672.97
1711.8
1724.74
1723.42
1654.65
1721.01
1698.68
1707.14
1706.46
1678.97
1679.63
1689.44
1683.99
1663.58
1675.79
1722.58
1658
1698.19
710
1654.59
1726.66
1699.41
1733.45
1715.87
1663.22
1695.99
1680.31
1686.48
1704.46
1703.59
1658.55
1693.24
1671.97
1689.65
1681.39
1669.19
1644.11
1643.33
1650.6
710
1676.72
1694.02
1675.21
1711.18
1719.82
1670.26
1661.75
1711.95
1649.9
1679.86
1670.49
1696.42
1700.6
1694.74
1677.03
1693.44
1696.04
1686.56
1683.85
1667.11
1676.37
1640.59
1653.05
1656.76
1651.25
1677.63
1690.36
1659.39
1672.27
1716.84
1692.77
1688.52
1692.37
1679.25
1668.7
1676.85
1663.93
1658.03
1639.39
1642.98
1652.34
1660.24
1651.87
710
1664.49
1712.69
1653.93
1692.16
1698.7
1712.2
1701.25
1673.35
1709.32
1701.55
1693.78
1694.18
1693.54
1672.16
1679.69
1650.56
1638.72
1639.85
1641.25
1638.09
710
1665.37
1656.4
1670.95
1668.44
1721.69
1669.97
1716.9
1718.03
1678.93
1716.22
1706.1
1712.41
1660.24
1683.08
1644.41
1655.03
710
1662.76
1653.35
1669.9
1676.41
1661.4
1652.57
1691.36
1712.39
1682.27
1700.69
1698.21
1686.44
1686.66
1660.46
1673.79
1648.44
1684.66
1650.01
710
1674.97
1664.59
1675.17
1659.54
1661.5
1682.15
1717.4
1684.57
1719.93
1714.88
1738.34
1714.59
1700.51
1709.02
1697.9
1705.27
1704.9
1703.42
1674.97
1649.54
1648.26
1647.4
710
710
1701.29
1688.94
1702.52
1686.76
1706.41
1687.64
1717.21
1703.26
1738.22
1708.34
1702.97
1675.47
1704.47
1705.6
1658
1702.45
1697.69
1666.54
1691.49
1686.08
1679.59
1667.39
1669.03
1652.44
1644.5
1641.31
710
1670.86
1684.53
1670.15
1715.86
1717.48
1648.26
1652.31
1713.23
1705.49
1687.45
1699.77
1692.92
1676.17
1686.17
1673.33
710
1649.58
1680.58
1695.02
1669.77
1708.37
1663.18
1695.74
1711.16
1724.45
1712.58
1668.12
1659.81
1704.2
1667.56
1677.69
1709.77
1650.48
1698.41
1686.33
1641.92
1674.62
1685.02
1665.72
1662.05
1647.33
1667.4
1682.29
1650.07
1713.02
1649.07
1650.1
1703.45
1699.07
1666.5
1650.47
1665.13
1698.88
1674.48
1663.42
1706.41
1699.3
1698.21
1677.03
1654.45
1661.96
1647.12
1663.21
1678.79
1695.32
1671.29
1658.9
1698.34
1709.83
1719.95
1661.33
1704.33
1707.03
1686.61
1695.56
1687.66
1691.79
1691.3
1685.27
1685.27
1684.74
1682.42
1657.51
1672.99
710
1691.75
1658.36
1647.38
1689.34
1702.39
1699.52
1708.69
1712.92
1704.58
1713.34
1657.13
1669.05
1699.16
1696.98
1696.93
1678.02
1676.19
1682.49
1660.35
1655.25
1654.01
710
1658.06
1703.85
1686.73
1723.12
1699.69
1693.84
1695.16
1695.04
1686.66
1678.01
1686.3
1681.62
1683.87
1680.36
1677.23
1666.74
1659.37
710
1648.61
1646.4
1701.89
1704.9
1667.27
1680.95
1658.29
1699.22
1714.41
1676.08
1657.97
1688.53
1659.65
1700.53
1700.68
1698.71
1687.33
1672.99
1670.36
1678.57
1676.33
1681.62
1654.5
1639.67
1654.8
710
1661.25
1688.13
1647.39
1705.49
1680.6
1730.34
1690.53
1707.58
1686.21
1668.76
1716.52
1708.94
1705.98
1688.88
1703.65
1696.66
1693.39
1688.73
1702.77
1701.76
1695.79
1678.48
1638.89
1673.19
1659.36
1686.8
1660.4
1684.66
1704.02
1726.72
1688.91
1679.68
1705.43
1697.1
1712.31
1712.55
1706.34
1681.33
1707.48
1706.51
1705.6
1702.73
1675.33
1689.43
1679.83
1649.94
710
1657.11
1665.74
1712.74
1647.24
1715.99
1703.68
1656.23
1656.84
1679.65
1715.22
1699.78
1675.28
1692.15
1696.84
1680.83
1680.92
1689.58
1676.48
1664.31
1665.78
710
710
1681.2
1670.3
1717.57
1660.63
1711.53
1682.85
1711.9
1704.94
1692.08
1670.17
1704.93
1686.76
1690.06
1692.51
1686.05
1643.5
1640.51
710
710
710
1714.21
1687.51
1679.53
1655.5
1678.97
1719.38
1720.13
1651.76
1696.58
1684.59
1657.12
1708.77
1703.95
1698.18
1691.62
1688.43
1677.49
1660.84
1642.93
710
1671.73
1685.81
1730.25
1691.41
1692.54
1722.41
1714.45
1706.36
1681.11
1677.57
1701.9
1669.85
1701.12
1693.77
1695.79
1679.17
1677.52
1691.1
1662.96
1664.59
1646.97
710
1685.69
1648.74
1716.54
1710.99
1672.23
1705.38
1653.38
1702.53
1685.36
1647.56
1704.19
1703.09
1675.67
1702.16
1656.77
1698.17
1688.85
1666.07
1662
1655.43
1640.38
1634.5
1649.61
1650.64
1672.57
1653.57
1672.28
1706.36
1650.55
1671.87
1719.27
1717.87
1712.08
1722.72
1704.66
1702.8
1652.66
1702.95
1700.04
1695.47
1689.74
1676.99
1691.22
1664.24
1656.41
1647.83
1643.17
1648.51
1710.43
1685.47
1658.62
1646.99
1681.63
1717.29
1721.37
1689.77
1713.55
1713.42
1707.76
1688.07
1703.47
1699.92
1698.03
1681.85
1697.75
1673.9
1680.16
1673.09
1656.85
1697.07
1682.12
1712.86
1701.6
1725.21
1721.73
1686.7
1700.12
1686.58
1698.18
1699.06
1673.4
1681.61
1670.41
1640.28
1663.84
1649.29
1646.85
1650.9
1665.96
1673.77
1724.2
1667.78
1719.25
1681.85
1713.13
1711.84
1706.03
1698.54
1692.79
1683
1681.96
1689.77
1683.39
1684.24
1681.73
1681.75
1644.91
1644.75
1650.28
1665.01
710
1703.33
1690.21
1686.27
1713.73
1707.78
1707.94
1709.41
1699.13
1708.31
1706.63
1700.47
1686.8
1683.76
1693.99
1680.29
1668.28
1637.48
1683.66
1689.82
1646.97
1687.78
1681.81
1677.07
1710.98
1675.95
1708.86
1697.59
1692.79
1681.26
1708.88
1692.51
1686.81
1702.19
1700.6
1698.42
1660.8
1680.29
1677.71
1639.47
1668.67
1657.88
1693.53
1659.37
1699.32
1646.86
1702.32
1672.79
1682.57
1691.52
1721.38
1717.76
1711.97
1693.16
1650.91
1711.63
1704.62
1672.22
1705.72
1698.79
1696.74
1693.67
1696.32
1682.76
1674.98
1642.07
1670.68
1664.94
710
1658.72
1692.71
1667.28
1702.47
1688.92
1662.12
1714.36
1711.66
1670.43
1689.05
1695.5
1695.76
1674.86
1697.99
1682.17
1647.52
1681.49
1641.7
1668.58
710
710
1671.82
1727.88
1711.16
1701.85
1709.92
1718.63
1721.46
1716.7
1706.75
1711.71
1710.66
1709.48
1701.67
1677.49
1703
1698.15
1694.99
1664.59
710
1653.94
1646.59
1644.72
1713.78
1696
1760.62
1715.11
1705.83
1701.58
1687.23
1711.77
1710.36
1698.18
1699.06
1695.51
1690.1
1669.68
1675.45
710
710
1664.41
1671.39
1689.86
1705.1
1691.01
1688.26
1727.05
1691.64
1716.33
1711.86
1707.07
1654.74
1708.23
1701.19
1688.91
1681.98
1675.44
710
1658.35
1698.1
1662.77
1651.86
1687.99
1684.01
1705.04
1713.56
1705.78
1647.35
1650.16
1716.65
1714.63
1699.01
1673.48
1694.87
1671.67
1687.56
1689.81
1688.67
1639.37
1674.73
1644.53
1639.23
710
1684.89
1704.25
1655.1
1687.74
1700.04
1712
1730.51
1681.67
1660.82
1646.18
1716.8
1710.3
1656.23
1679.66
1676.54
1715
1705.5
1675.45
1702.48
1695.92
1687.94
1643.91
1635.96
1702.09
1650.56
1656.81
1687.43
1700.01
1660.85
1703.56
1678.88
1669.17
1663.8
1646.83
1713.84
1646.61
1704.3
1700.49
1707.02
1655.34
1694.8
1691.98
1642.72
1641.28
1685.13
710
710
1705.3
1675.59
1665.71
1694.91
1667.69
1702.88
1713.46
1645.28
1658.16
1724.81
1665.32
1671.41
1662.68
1709.54
1703.21
1676.55
1715.1
1706.61
1691.79
1700.2
1683.62
1695.37
1692.42
1692.15
1685.44
1673.42
1665.15
1636.83
1664.23
710
710
710
710
710
710
710
710
710
710
710
710
710
710
710
710
710
710
710
710
710
710
710
710
710
710
710
710
710
710
710
710
710
710
710
710
710
710
710
710
710
710
710
710
710
710
710
710
710
710
710
710
710
710
710
710
710
710
710
710
710
710
710
710
710
710
710
710
710
710
710
710
710
710
710
710
710
710
710
710
710
710
710
710
710
710
710
710
710
710
710
710
710
710
710
710
710
710
710
710
710
710
710
710
710
710
710
710
710
710
710
710
710
710
710
710
710
710
710
710
710
710
710
710
710
710
710
710
710
710
710
710
710
710
710
710
710
710
710
710
710
710
710
710
710
710
710
710
710
710
710
710
710
710
710
710
710
710
710
710
710
710
710
710
710
710
710
710
710
710
710
710
710
710
710
710
710
710
710
710
710
710
710
710
710
710
710
710
710
710
710
710
710
710
710
710
710
710
710
710
710
710
710
710
710
710
710
710
710
710
710
710
710
710
710
710
710
710
710
710
710
710
710
710
710
710
710
710
710
710
710
710
710
710
710
710
710
710
710
710
710
710
710
710
710
710
710
710
710
710
710
710
710
710
710
710
710
710
710
710
710
710
710
710
710
710
710
710
710
710
710
710
710
710
710
710
710
710
710
710
710
710
710
710
710
710
710
710
710
710
710
1664.26
1707.13
710
1701.95
710
1714.28
1704.5
710
1765.68
710
710
710
1682.12
1674.25
1734.66
1751.49
1761.93
710
710
1709.49
710
1705.74
1757.77
1737.84
1765.37
710
710
1735.93
1747.6
1761.74
1781.13
1794.09
710
710
710
1739.51
1782.81
1750.39
1736.01
1742.48
1722.56
1707.58
1746.86
1750.66
1668.26
1780.62
1766.86
710
710
710
1683.66
1668.9
1815.95
1718.94
1760.47
710
1761
1798.15
710
710
1715.82
1689.1
1711.25
1806.75
710
1663.98
1729.2
1794.87
1709.7
1669.87
1718.04
1724.33
710
1722.63
1675.39
1658.62
1709.04
710
710
710
710
1703.66
1769.19
1788.9
1662.2
1730.63
1744.49
1672.6
1720.26
1729.35
1675.45
1659.77
1683.83
1664.64
1707.15
1772.82
1787.91
1691.42
1704.75
1666.53
1802.19
1671.03
1690.52
1705.73
1675.82
1699.26
1693.28
1757.67
1776.99
1666.38
1712.73
1697.46
1755.31
1759.9
1738.07
1755.18
1687.94
1767.7
1746.81
1719.01
1688.53
1678.25
1726.72
1709.01
1688.39
1753.14
710
1738.38
1731.03
1728.03
1670.95
1786.26
1767.11
1676.77
1743.01
1702.99
1693.56
1664.78
1707.41
1693.05
1715.22
1714.98
1739.38
1763.11
1729.5
1688.87
1750.01
1756.97
1709.45
1799.46
1678.56
1776.39
710
1734.63
1783.66
1762.68
1683.34
1744.44
1714.92
1655.7
1694.92
1693.04
1681.89
1728.12
1718.88
1696.44
1703.74
1747.24
1772.55
1797.27
1779.11
1722.13
1752.04
1656.26
1689.22
1668.14
710
710
710
710
710
1739.1
1758.09
1673.39
1692.54
1711.45
1775.38
710
1688.03
1735.58
1714.16
1705.74
1794.38
1702.25
1769.47
1669.58
1682.95
1691.09
1735.29
1730.16
1657.39
1698.61
1804.1
1655.28
1785.65
1666.69
1712.53
1674.63
1685.03
1728.97
1658.68
1689.03
1720.46
710
1679.32
1707.73
1752.32
1667.87
1747.98
1730.63
1770.41
1672.22
1736.57
1663.21
1735.76
710
1743.85
1741.92
1738.88
1713.1
1692.82
1774.58
1656.77
1700.36
1695.22
1661.54
1670.82
1651.12
1673.87
1729.5
1723.16
1661.24
1682.98
710
1688.28
1675.06
1807.26
1696.4
1690.79
1687.68
1709.71
1773.75
1654.63
1653.71
1649.22
1663.47
1685.05
1714.27
1739.45
1689.87
710
1680.43
1688.32
1754.51
1706.68
1675.41
1772.78
1777.87
1747.9
1723.75
1653.75
1679.53
1779.07
1681.6
1648.26
1661.49
1740.78
710
1737.09
1745.23
1768.39
1774.4
1696.55
1707.6
1709.87
1790.89
1677.27
1700.79
1668.43
1667.37
1682.07
1663.09
1687.33
1652.16
1676.57
1657.75
1667.78
1681.94
1687.52
1704.36
710
710
1730.32
1778.96
1778.32
1688.52
1715.73
1729.12
1691.65
1658.32
1671.13
1651.94
1648.93
1651.67
1653.37
1667.11
1658.03
1675.41
1665.77
1719.95
1707.8
1685.09
1654.84
1650.7
1683.9
1665.5
1652.44
1679.15
1742.54
1649.43
1651.72
1667.98
1654.65
1671.16
1692.46
1712.17
1648.62
1673.83
1653.28
1657.76
1686.46
1698.9
710
710
1751.44
1737.36
1715.46
1738.16
1798.78
1663.58
1701.02
1675.34
1691.76
1686.05
1678.08
1740.1
1659.63
1675.37
1650.09
1669.89
1661.02
1654.42
1665.69
1711.54
1703.38
1660.95
1664.24
1693.66
1711.4
1727.78
1737.53
1710.16
1731.29
1733.62
1729.71
1696.26
1660.82
1672.05
1698.09
1785.38
1657.97
1743.8
1669.02
1687.55
1661.83
1673
1764
1655.18
1659.53
1677.49
1653
1717.06
1673.31
1704.59
1735.99
1702.81
1726.01
1725.54
1769.01
1673.88
1675.17
1697.25
1655.17
1691.07
1654.13
1666.2
1696.46
1651.99
1668.94
1649.83
1669.31
1683.38
1683.03
1666.82
1658.35
1671.07
1689.11
1696.87
1712.61
1665.85
1708.09
1683.7
1690.86
1710.77
1730.68
710
1715.6
1775.56
1670.79
1680.47
1667.82
1655.04
1681.29
1662.3
1668.64
1728.59
1661.4
1675.84
1662.43
1665.13
1681
1722.61
1682.69
1686.36
1680.2
1694.69
710
710
1676.08
1697.9
1767.05
1779.5
1673.68
1674.32
1664.13
1709.04
1703.28
1687.81
1658.43
1687.35
710
710
710
710
1720.66
1672.2
1750.12
1745.51
1676.66
1663.2
1665.11
1677.41
1682.33
1652.75
1673.48
1688.37
1659.15
1658.92
1674.24
1690.08
1655.74
1662.21
1711.35
710
710
710
1744.17
1684.63
1715.04
1694.94
1682.79
1665.15
1685.73
1693.46
1652.62
1687.92
1713.26
1751.51
1692.53
1665.22
1668.11
1668.42
1692.6
1690.25
1740.12
1687.82
1715.99
1735.77
710
710
1708.78
1772.54
1772.57
1735.01
1732.82
1701.27
1704.48
1692.28
1689.43
1665.12
1653.76
1710.58
1658.67
1688.88
1742.17
1704.21
1678.27
1709.87
1721.38
710
1751.8
1770.84
1720.86
1677.66
1681.34
1668.09
1703.01
1669.95
1671.02
1647.11
1671.3
1655.36
1676.58
1694.53
710
710
1685.15
1696.09
1708.98
1769.34
1659.23
1666.3
1680.43
1755.36
1673.05
1648.84
1666.99
1676.49
1648.49
1706.44
1668.84
1657.14
1655.1
1661.02
1658.35
1662.65
1673.84
1693.61
1715.28
710
1666.51
1786.91
1778.03
1776.79
1665.93
1665.84
1772.49
1664.31
1652.57
1674.59
1679.94
1675.38
1651.91
1666.75
1670.72
1728.74
1687.74
710
1658.69
1733.13
1756.21
1653.83
1749.7
1724.57
1726.56
1735.49
1654.16
1756.72
1762.87
1683.87
1670.6
1693.86
1687.46
1680.42
1650.9
1648.78
1699.13
1646.55
1680.75
1712.24
1684.48
710
710
710
1698.79
1715.13
1653.39
1737.95
1671.76
1687.56
1654.55
1739.78
1660.04
1698.91
1685.72
1665.55
1672.55
1681.78
1673.92
1694.71
710
710
710
1723.82
1778.01
1712.56
1682.96
1706.7
1674.32
1694.95
1730.31
1659.67
1725.79
1682.42
1691.87
1660.22
1651.83
1662.61
1702.8
1645.18
1670.95
1662.44
1686.12
1666.62
1714.6
710
1653.51
1775.77
1668.19
1720.18
1688.69
1674.89
1655.94
1680.95
1681.54
1661.85
1704.05
1661.54
1664.81
1653.29
1704.86
1665.11
1696.48
1650.35
1687.74
1690.79
1734.89
710
710
1660.51
1682.68
1725.27
1763
1708.43
1775.37
1693.13
1769.23
1668.41
1728.78
1655.54
1661.12
1675.43
1647.85
1659.47
1686.76
1725.77
1707.39
1728.08
1680.74
1735.18
1710.3
1748.11
1714.28
1655.11
1696.3
1697.91
1648.25
1675.01
1672.59
1665.65
1662.24
1662.15
1662.51
1645.72
1651.36
1669.08
1680.71
1709.37
710
710
1669.54
1789.8
1711.5
1678.11
1712.44
1699.32
1655.97
1685.94
1686.71
1684.99
1735.17
1692.96
1732.46
1745.4
1679.78
1648.54
1734.83
1699.12
1679.11
710
710
1718
1728.41
1663.28
1753.63
1731.76
1753.96
1678.71
1690.57
1703.22
1655.09
1760.23
1689.81
1649.67
1662.86
1651.14
1726.98
1716.15
710
710
1734.34
1666.01
1753.5
1660.66
1670.43
1788.74
1687.56
1686.42
1701.02
1664.06
1652.43
1652.78
1687.27
1665.32
1669.64
1652.23
1649.85
1667.51
1729.16
1655.4
1656.4
1654.78
1704.34
1719.72
1721.89
1756.79
1737.32
1694.87
1684.26
1704.57
1670.59
1674.25
1647.81
1664.2
1691.42
1655.75
1647.93
1660.03
1671.56
1651.73
1673.63
1694.53
1690.16
710
710
710
1695.97
1727.93
1701.83
1766.66
1654.8
1706.66
1699.41
1673.87
1674.5
1645.27
1676.24
1721.45
1662.5
1679.94
1718.36
710
1712.7
1686.57
1742.8
1714.99
1658.96
1673.63
1697.18
1696.72
1698.19
1697.85
1675.76
1677.88
1692.78
1688.87
1686.1
1646.45
1740.89
1649.21
1667.22
1648.24
1672.79
1669.75
1686.08
1652.53
1657.77
1674.27
1682.1
1676.63
1710.18
1722.84
1728.64
1699.21
710
1715.07
1740.13
1732.86
1722.91
1656.35
1694.73
1732.73
1692.73
1718.84
1654.9
1682.73
1698.47
1649.57
1672.66
1657.9
1656.63
1648.42
1649.44
1673.49
1650.64
1661.77
1690.17
1671.72
710
1668.99
1657.54
1677.85
1665.43
1696.73
1662.98
1709.16
1715.66
1657.21
1662.47
1739.15
1663.36
1662.05
1668.79
1707.34
710
1700.37
1723.5
1733.02
1782.3
1765.29
1677.83
1670.98
1718.46
1703.19
1688.7
1664.39
1658.78
1676.08
1668.05
1655.2
1674.32
1674.34
1687.43
1709.85
1645.74
1655.97
1654.86
1685.22
1648.59
1691.28
1708.17
1686.14
1712.83
710
1651.95
1783.09
1751.37
1775.29
1728.47
1671.99
1656.81
1684.64
1647.09
1663.99
1664.64
1667.16
1668.83
1679.54
710
1671.2
1727.55
1682.23
1796.38
1782.77
1691.25
1736.58
1651.91
1687.36
1701.8
1673.8
1723.57
1716.71
1655.16
1672.49
1648.57
1645.55
1656.16
1659.04
1713.76
1653.48
1710.49
1663.2
1673.79
1718.92
1759.54
1684.41
1726.1
1678.61
1689.54
1685.99
1692.37
1678.07
1666.54
1650.25
1655.73
1670.42
1704.61
1654.86
1674.7
1695.24
1679.16
710
710
1690.87
1687.71
1702.78
1673.36
1674.19
1693.69
1702.66
1659.32
1800.38
1780
1715.65
1782.03
1703
1663.51
1716.32
1656.21
1704.04
1689.07
1755.69
1675.64
1649.12
1666.02
1694.11
1668.98
1651.02
1646.19
1660.04
1738.12
710
1714.39
1698.1
1696.49
1700.75
1696.75
1679.12
1684.16
1689.75
1660.03
1660.5
1661.57
1674.18
1648.42
1652.06
1662.44
1656.22
1649.75
1734.16
1656.59
1729.93
1676.17
1686.14
710
1683.94
1684.28
1683.1
1699.24
1652.94
1727.69
1748.78
1684.46
1706.52
1654.43
1648.63
1673.55
1676.32
1661.01
1682.21
1649
1648.06
1652.27
1656.8
1654.76
1661.63
1664.88
1683.48
710
710
1666.71
1711.87
1676.98
1663.23
1689.9
1679.56
1692.96
1664.79
1651.77
1698.88
1658.91
1673.84
1678.17
1675.59
1654.21
1667.94
1660.49
1700.98
1646.98
1662.01
1703.22
1676.45
1698.12
1695.01
1708.44
1778.9
1675.07
1766.33
1660.04
1651.97
1710.49
1657.29
1677.2
1691.59
1654.76
1703.03
1686.67
1668.62
1695.42
1651.66
1652.04
1649.47
1661.27
1676.82
1650.13
1665.67
710
710
710
1674.82
1732.79
1667.1
1676.45
1668.91
1680.1
1675.28
1672.09
1655.55
1697.13
1707.72
1700.78
1761.82
1666.16
1694.51
1728.01
1663.93
1712.74
1727.29
1653.34
1676.8
1708.65
1671.1
1709.55
1656.12
1686.23
1686.23
1687.98
1666.48
1689.38
1691.64
1710.94
1674.28
1725.6
1666.28
1756.19
1737.57
1732.83
1672.28
1650.39
1661.71
1667.78
1706.67
1716.88
1692.16
1680.18
1656.79
1649.79
1668.51
1689.7
1708.68
710
1725.61
1751.96
1778.91
1746.36
1689.59
1682.39
1666.88
1702.11
1681.3
1705.64
1655.59
1696.73
1688.89
1669.39
1655.95
1724.2
1642.95
1682.65
1707.94
1699.09
1654.6
1677.62
1700.28
1661.91
1708.93
1702.93
1689.11
1658.07
1681.22
1696.18
1647.52
1649.18
1664.56
1649.79
1645.31
1667.41
1674.57
1703.27
1700.72
1712.16
710
1696.92
1699.96
1700.74
1707
1668.38
1661.04
1661.14
1673.52
1647.14
1672.6
1657.6
1656.52
1676.25
1652.62
1644.11
1669.8
1665.08
1658.86
1651.57
1648.33
1644.63
1656.23
1654.53
1687.72
710
1673.9
1705.97
1671.5
1689.2
1690.45
1673.07
1723.28
1668.36
1677.81
1696.05
1688.89
1668.08
1680.56
1692.23
1682.95
1659.62
1647.65
1665.73
1716.53
1694.53
1758.29
1687.53
1682.55
1682.3
1680.01
1700
1689.71
1663.81
1698.52
1693.6
1681.59
1682.12
1681.85
1667.44
1651.13
1659.2
1673.58
1645.37
1648.76
1673.15
1652.26
1699.15
1655.58
1699.4
1658.07
1700.04
1650.83
1652.35
1700.91
1676.56
1655.94
1696.93
1746.94
1680.82
1672.2
710
710
710
1671.3
1682.29
1760.89
1713.2
1706.51
1658.78
1701.74
1687.69
1693.43
1691.75
1711.25
1651.53
1648.31
1668.18
1672.1
1645.87
1678.25
1679.91
1691.39
1691.64
1733.85
1720.57
1686.92
1710.01
1657.81
1662.74
1681.74
1678.48
1662.08
1700.25
1664.35
1691.46
1652.16
1693.26
1689.25
1681.35
1656.84
1655.02
1649.48
1668.15
1678.42
710
1715.39
1683.16
1677.67
1703.93
1732.61
1670.71
1672.28
1706.11
1654.63
1655.47
1692.24
1694.07
1677.3
1669.57
1688.92
1678.31
1677.73
1656.45
1670.86
1643.44
1659.26
1650.5
710
1698.56
1692.4
1756.78
1745.9
1709.11
1666.27
1715.17
1718.02
1681.59
1694.27
1667.37
1681.53
1689.17
1658.11
1681.25
1663.39
1643.84
1667.57
1659.86
1656.91
1670.17
1693.13
1679.88
1683.3
710
710
1675.97
1740.3
1748.75
1709.45
1656.02
1650.96
1671.53
1658.63
1690.4
1684.52
1674.72
1691.94
1669.61
1688.72
1682.36
1678.44
1675.59
1680.6
1659.1
1684.52
1687.73
1682.84
1685.51
1709.5
1654.91
1693.92
1681.97
1731.32
1648.63
1701.18
1725.1
1666.34
1656.92
1683.6
1675.11
1656.49
1695.12
1700.67
710
1701.49
1691.48
1735.23
1664.92
1718.36
1649.15
1686.87
1649.45
1701.45
1702.91
1665.66
1654.7
1700.28
1679.5
1691.84
1675.88
1673.54
1686.45
1666.72
1718.61
1662.61
1650.12
1646.48
1665.44
1647.97
1708.62
1690.62
710
1696.19
1670.44
1690.26
1699.77
1712.37
1655.18
1665.8
1681.97
1671.06
1706.83
1710.34
1730.95
1672.97
1704.03
1688.52
1677.43
1660.24
1722.26
1654.55
1665.25
1650.13
1650.19
710
710
710
710
1685.48
1712.17
1651.19
1651.57
1722.76
1651.81
1691.39
1692.62
1699.92
1688.9
1658.87
1648.18
1651.74
1684.7
1650.21
1674.07
1669.21
1675.95
1667.57
1669.08
1675.95
1718.62
1683.52
1648.05
1700.57
1645.48
1694.71
1680.35
1661.37
1665.25
1659.25
1643.5
1646.06
1661.29
710
710
1653.16
1659.93
1681.52
1724.4
1753.66
1678.56
1669.9
1741.07
1713.97
1651.17
1675.9
1649.01
1705.79
1700.81
1720.71
1658.9
1687.75
1650.57
1687.79
1715.25
1663.33
1694.92
1659.25
1664.75
1674.89
1643.46
1654.48
1657.18
1662.24
1714.8
710
710
1666.44
1710.31
1692.31
1692.06
1738.74
1712.89
1670.3
1705.28
1696.14
1752.63
1660.35
1659.27
1698.33
1693.88
1692.45
1692.08
1682.98
1681.5
1659.69
1654.27
1711.32
710
1694.82
1699.62
1715.56
1712.7
1703.73
1725.34
1651.92
1714.85
1688.48
1655.58
1680.65
1676.62
1692.04
1675.57
1670.56
1652.75
1654.04
1645.99
1664.1
1662.86
710
710
1654.29
1653.25
1655.85
1661.01
1707.64
1672.23
1703.1
1694.53
1674.18
1697.3
1689.74
1687.13
1682.12
1669.38
1675.39
1665.87
1656.51
1664.82
1675.5
1653.02
1686.72
1668.98
1707.82
1705.95
1662.67
1666.84
1663.15
1744.21
1718.62
1671.5
1682.77
1687.7
1678.66
1695.51
1687.26
1681.32
1645.35
1659.08
1657.46
1657.76
1660.63
1757.07
1718.71
1754.06
1763.63
1752.39
1685.75
1677.68
1661.14
1675.94
1718.13
1660.85
1661.25
1689.02
1645.27
1672.4
1699.18
1695.1
1687.83
1691.43
1683.98
1654.77
1650.83
710
1694.54
1695.21
1712.94
1680.86
1702.6
1651.87
1685.69
1698.11
1693.53
1644.68
1687.39
1659.54
1677.78
1684.19
1670.19
1654.65
1698.3
1642.64
710
1702.13
1683.82
1668.39
1717.82
1671
1680.4
1690.63
1675.92
1660.69
1685.63
1698.02
1675.71
1678.85
1682
1655.03
1654.89
1642.45
1649.28
1653.55
1658.66
1735.9
1656.54
1660.81
1651.11
1678.38
1669.07
1685.41
1701.32
1673.74
1682.75
1679.91
1666.79
1672.98
1649.29
1673.44
1665.64
1692.87
1708.17
1698.74
1740.09
1692.71
1666.55
1652.46
1685.9
1654.78
1750.47
1699.31
1693.26
1669.96
1671.74
1689.56
1670.97
1645.07
1682.48
1650.86
1652.12
1687.99
1708.41
1641.91
1650.35
1656.69
710
710
1697.73
1703.42
1699.75