/*--------------------------------*- C++ -*----------------------------------*\
| =========                 |                                                 |
| \\      /  F ield         | OpenFOAM: The Open Source CFD Toolbox           |
|  \\    /   O peration     | Version:  v1906                                 |
|   \\  /    A nd           | Web:      www.OpenFOAM.com                      |
|    \\/     M anipulation  |                                                 |
\*---------------------------------------------------------------------------*/
FoamFile
{
    version     2.0;
    format      ascii;
    class       scalarField;
    location    "2.83/lagrangian/coalCloud1";
    object      d;
}
// * * * * * * * * * * * * * * * * * * * * * * * * * * * * * * * * * * * * * //


53638
(
1.36609e-05
1.63563e-05
2.20585e-05
1.11858e-05
2.01658e-05
1.86542e-05
1.10979e-05
2.14663e-05
2.17259e-05
1.77919e-05
1.93889e-05
1.49206e-05
2.96881e-05
2.07692e-05
2.65561e-05
1.15747e-05
1.78767e-05
2.12148e-05
2.16863e-05
1.12379e-05
2.35618e-05
1.75237e-05
2.6809e-05
2.9007e-05
2.37146e-05
2.55938e-05
1.71319e-05
2.59052e-05
1.33075e-05
1.87789e-05
1.32611e-05
2.52928e-05
1.42663e-05
1.39208e-05
3.03269e-05
2.67361e-05
2.83129e-05
1.32709e-05
1.98039e-05
1.80743e-05
1.29897e-05
2.15691e-05
2.06024e-05
2.0627e-05
1.65715e-05
2.83856e-05
1.86868e-05
2.7743e-05
1.64801e-05
2.03597e-05
1.34339e-05
1.958e-05
1.98703e-05
2.66065e-05
2.49108e-05
1.06591e-05
2.73472e-05
2.81449e-05
1.54221e-05
2.1458e-05
1.83502e-05
2.39978e-05
1.90449e-05
1.28789e-05
2.16842e-05
2.12017e-05
1.98255e-05
1.61523e-05
2.24418e-05
1.82259e-05
9.17403e-06
1.31269e-05
2.37916e-05
2.93967e-05
3.53712e-05
1.83648e-05
1.4869e-05
1.89968e-05
2.03344e-05
1.49197e-05
1.23795e-05
2.63494e-05
1.45438e-05
2.52504e-05
1.15868e-05
1.58399e-05
2.38292e-05
1.44225e-05
1.99808e-05
1.65325e-05
1.32619e-05
2.32994e-05
2.73374e-05
1.5971e-05
1.27553e-05
1.39709e-05
1.70281e-05
1.00249e-05
1.53541e-05
1.2368e-05
2.04314e-05
1.43321e-05
2.46401e-05
1.86134e-05
1.41004e-05
1.70117e-05
1.13363e-05
2.413e-05
1.83527e-05
2.38979e-05
1.70951e-05
1.65795e-05
2.24715e-05
2.17256e-05
1.29615e-05
1.62146e-05
7.87095e-06
1.58765e-05
1.27149e-05
1.68382e-05
1.82078e-05
3.0413e-05
1.64992e-05
9.48618e-06
1.54567e-05
1.74012e-05
1.00144e-05
1.48744e-05
1.55525e-05
1.49693e-05
1.55058e-05
1.58493e-05
9.35968e-06
1.95749e-05
1.92645e-05
2.93342e-05
2.23787e-05
1.51688e-05
1.52153e-05
1.95278e-05
8.86495e-06
2.73603e-05
1.96149e-05
2.03285e-05
2.65854e-05
1.96389e-05
2.30827e-05
1.88141e-05
2.26562e-05
1.47662e-05
1.99762e-05
1.91463e-05
2.47786e-05
2.80488e-05
1.05577e-05
1.56994e-05
1.32358e-05
1.41394e-05
1.2265e-05
1.85266e-05
2.13061e-05
1.26805e-05
1.77826e-05
1.96355e-05
2.76841e-05
1.15593e-05
2.12906e-05
2.2807e-05
2.51274e-05
2.64678e-05
1.48197e-05
1.26967e-05
2.4709e-05
1.6653e-05
1.25372e-05
2.24119e-05
1.18777e-05
2.06625e-05
1.80047e-05
1.94066e-05
2.82348e-05
1.40871e-05
9.44342e-06
3.43658e-05
1.54059e-05
1.54405e-05
1.76075e-05
1.28794e-05
1.60988e-05
2.97707e-05
1.57509e-05
1.29463e-05
9.65649e-06
2.1765e-05
1.97268e-05
1.59051e-05
1.33356e-05
2.78961e-05
1.03795e-05
1.30486e-05
1.17924e-05
3.52815e-05
1.80019e-05
2.35129e-05
1.23067e-05
2.22092e-05
2.55421e-05
2.22813e-05
1.17876e-05
1.85375e-05
1.77461e-05
1.61781e-05
2.89945e-05
1.97776e-05
2.08222e-05
2.45071e-05
1.72342e-05
1.80931e-05
2.69578e-05
1.3962e-05
1.15628e-05
1.761e-05
2.04695e-05
2.10266e-05
2.26837e-05
1.06314e-05
1.83021e-05
1.27801e-05
2.58613e-05
1.45945e-05
1.11701e-05
1.59378e-05
1.23498e-05
1.29652e-05
1.69006e-05
1.90655e-05
2.37603e-05
2.44667e-05
3.25874e-05
1.09773e-05
3.19129e-05
1.55802e-05
2.1686e-05
2.46241e-05
2.02373e-05
1.65596e-05
2.30497e-05
2.38627e-05
2.76616e-05
2.69267e-05
9.53217e-06
3.01791e-05
2.18921e-05
1.25118e-05
2.88156e-05
2.35537e-05
1.92465e-05
1.64165e-05
1.63752e-05
1.38554e-05
1.69421e-05
3.15479e-05
1.87793e-05
1.35692e-05
1.44868e-05
3.02657e-05
2.10273e-05
1.09916e-05
2.99568e-05
1.13049e-05
2.63659e-05
8.2749e-06
1.379e-05
3.38429e-05
1.89185e-05
1.55015e-05
1.37059e-05
1.15683e-05
2.88545e-05
2.90235e-05
1.70083e-05
1.69928e-05
2.99826e-05
2.31001e-05
2.47594e-05
1.19973e-05
2.45647e-05
2.01434e-05
2.90932e-05
1.76092e-05
1.34334e-05
1.69484e-05
2.18584e-05
2.56057e-05
2.3627e-05
2.13023e-05
1.43741e-05
2.2153e-05
2.44749e-05
2.87244e-05
2.91167e-05
3.96654e-05
1.78018e-05
2.80812e-05
1.89184e-05
2.41102e-05
2.91056e-05
1.90258e-05
1.67402e-05
2.80288e-05
2.59775e-05
2.75225e-05
1.73786e-05
2.41896e-05
2.52955e-05
2.07725e-05
1.22977e-05
1.15673e-05
2.39741e-05
1.55906e-05
1.22163e-05
1.58759e-05
2.89299e-05
2.46665e-05
1.40834e-05
3.2646e-05
4.29874e-05
1.9687e-05
2.54234e-05
2.87226e-05
2.32666e-05
1.92892e-05
2.82426e-05
9.43001e-06
1.50967e-05
3.08465e-05
1.95195e-05
2.82173e-05
3.07497e-05
4.03021e-05
2.22445e-05
1.97834e-05
3.04611e-05
1.53725e-05
3.19978e-05
2.38155e-05
2.24039e-05
1.35393e-05
1.52219e-05
1.50756e-05
1.10802e-05
1.59978e-05
2.12572e-05
3.06476e-05
8.77726e-06
1.43273e-05
9.0821e-06
2.7688e-05
2.09e-05
1.65932e-05
2.35e-05
2.77796e-05
2.37193e-05
1.26349e-05
2.55871e-05
2.8743e-05
3.09139e-05
1.88434e-05
1.11016e-05
1.59623e-05
1.70311e-05
2.75427e-05
2.18999e-05
1.89484e-05
1.87381e-05
2.14362e-05
2.50858e-05
1.65733e-05
1.78742e-05
2.52317e-05
1.59083e-05
2.25361e-05
2.51497e-05
1.64094e-05
1.72766e-05
2.9917e-05
3.15509e-05
2.97704e-05
1.01983e-05
3.33339e-05
2.90436e-05
2.86782e-05
1.85841e-05
1.93953e-05
1.98435e-05
2.3634e-05
1.77919e-05
1.66758e-05
2.94805e-05
2.48694e-05
1.57172e-05
1.42155e-05
3.89319e-05
1.50583e-05
2.41669e-05
2.86935e-05
3.02832e-05
2.85919e-05
1.59409e-05
2.34618e-05
2.651e-05
1.82646e-05
1.90531e-05
2.43322e-05
2.87523e-05
2.03001e-05
1.68313e-05
1.73462e-05
2.90914e-05
2.31744e-05
3.17945e-05
1.48086e-05
2.21048e-05
1.64622e-05
1.98047e-05
3.03158e-05
9.75419e-06
1.28929e-05
1.23194e-05
2.30231e-05
2.89692e-05
1.47046e-05
9.60506e-06
2.67528e-05
1.65368e-05
2.31781e-05
1.8853e-05
2.23617e-05
2.14178e-05
1.80097e-05
2.80679e-05
1.89143e-05
1.64199e-05
2.4453e-05
1.33827e-05
1.49811e-05
1.52853e-05
2.09777e-05
3.08191e-05
1.71048e-05
1.56711e-05
3.5107e-05
1.59749e-05
2.48385e-05
1.75004e-05
3.0129e-05
3.00371e-05
1.70889e-05
2.22068e-05
2.17404e-05
1.11425e-05
1.10051e-05
2.33933e-05
1.8956e-05
3.26445e-05
1.68129e-05
1.25951e-05
2.1078e-05
3.03378e-05
2.37479e-05
2.13734e-05
1.65298e-05
2.14817e-05
2.26762e-05
3.12378e-05
2.27738e-05
3.66678e-05
2.1097e-05
1.91836e-05
2.30413e-05
2.56329e-05
3.09384e-05
2.39764e-05
2.99461e-05
8.63426e-06
1.76511e-05
2.38024e-05
1.9602e-05
2.98485e-05
2.97424e-05
1.95348e-05
2.0424e-05
3.01815e-05
2.79481e-05
2.41096e-05
1.49562e-05
1.81458e-05
2.73591e-05
1.95027e-05
1.36107e-05
2.95487e-05
1.61286e-05
1.61431e-05
2.38229e-05
2.1383e-05
2.88921e-05
1.81923e-05
1.1918e-05
9.90231e-06
1.14452e-05
2.59495e-05
3.11841e-05
3.33919e-05
2.27287e-05
1.65999e-05
2.51708e-05
1.95824e-05
2.9656e-05
2.81658e-05
1.16639e-05
2.831e-05
2.73583e-05
1.3056e-05
1.63988e-05
2.71038e-05
2.71728e-05
1.40129e-05
2.17743e-05
2.43713e-05
2.79241e-05
2.86713e-05
2.56163e-05
3.00667e-05
1.03207e-05
1.51648e-05
1.94423e-05
1.03845e-05
1.39813e-05
2.83046e-05
2.33971e-05
2.07569e-05
2.72612e-05
1.13487e-05
3.02219e-05
2.27266e-05
2.10171e-05
2.79238e-05
9.74313e-06
3.04971e-05
2.92992e-05
2.64375e-05
3.16843e-05
1.37629e-05
2.18536e-05
2.20597e-05
2.56469e-05
1.5542e-05
2.79416e-05
1.58959e-05
2.04092e-05
2.22106e-05
2.70311e-05
2.71298e-05
1.39947e-05
1.32837e-05
3.27068e-05
1.89406e-05
1.92688e-05
1.11387e-05
1.93817e-05
3.18813e-05
2.12255e-05
2.87755e-05
1.11722e-05
1.87809e-05
3.09954e-05
1.35211e-05
2.17933e-05
1.65666e-05
2.70268e-05
2.12841e-05
1.376e-05
2.08232e-05
2.52335e-05
2.75334e-05
2.76137e-05
1.5353e-05
2.53607e-05
2.76974e-05
2.72709e-05
2.96858e-05
2.9654e-05
1.59208e-05
2.58213e-05
1.99397e-05
2.92825e-05
2.65165e-05
2.25838e-05
2.64655e-05
3.03416e-05
1.55841e-05
2.96935e-05
3.13662e-05
2.79598e-05
2.55278e-05
2.93349e-05
2.06496e-05
1.73031e-05
2.10595e-05
2.76434e-05
2.74994e-05
2.42747e-05
2.69197e-05
2.75522e-05
2.88707e-05
2.82823e-05
2.26758e-05
3.14545e-05
2.31372e-05
2.72088e-05
2.33425e-05
2.50022e-05
2.92327e-05
3.44049e-05
3.32261e-05
1.32712e-05
1.28437e-05
2.35467e-05
1.49666e-05
1.58358e-05
1.80872e-05
1.37879e-05
2.74659e-05
9.69982e-06
2.13067e-05
2.10489e-05
8.51817e-06
2.26262e-05
2.90841e-05
1.72755e-05
2.21855e-05
2.23534e-05
1.37371e-05
2.00728e-05
2.19687e-05
2.17276e-05
2.11749e-05
1.33255e-05
1.317e-05
3.1518e-05
1.40336e-05
1.53553e-05
2.13712e-05
3.46704e-05
1.16217e-05
2.47329e-05
2.25845e-05
2.74932e-05
2.79605e-05
1.22009e-05
1.62297e-05
2.79602e-05
1.11805e-05
1.66674e-05
2.78686e-05
2.37037e-05
1.38491e-05
2.10076e-05
2.50874e-05
1.70569e-05
2.2359e-05
3.19551e-05
2.91305e-05
1.67946e-05
2.04811e-05
1.76879e-05
3.34813e-05
1.7525e-05
3.19152e-05
2.44682e-05
2.84433e-05
2.88241e-05
2.24288e-05
1.69988e-05
3.313e-05
1.66853e-05
2.46252e-05
1.88627e-05
1.10444e-05
3.61812e-05
2.4797e-05
2.43127e-05
2.80818e-05
1.06922e-05
1.8174e-05
3.01876e-05
1.74146e-05
2.74295e-05
2.08863e-05
3.11942e-05
3.51622e-05
1.81472e-05
2.97516e-05
1.33202e-05
1.23846e-05
1.58079e-05
2.96209e-05
1.19151e-05
3.05383e-05
1.31528e-05
2.49103e-05
2.22193e-05
2.35206e-05
2.98119e-05
1.879e-05
2.2473e-05
2.75211e-05
1.83734e-05
2.92739e-05
2.53113e-05
2.03634e-05
2.86898e-05
1.55521e-05
4.20994e-05
2.02228e-05
1.9943e-05
2.75378e-05
2.85226e-05
2.89152e-05
1.73307e-05
3.28158e-05
2.02566e-05
1.9387e-05
1.26579e-05
1.51534e-05
3.05451e-05
2.0142e-05
3.22809e-05
2.26793e-05
2.40628e-05
2.67771e-05
2.95413e-05
2.4825e-05
1.92301e-05
2.43894e-05
2.36517e-05
1.45103e-05
8.77208e-06
2.31995e-05
2.89627e-05
1.49057e-05
2.27628e-05
2.55779e-05
2.61177e-05
1.95949e-05
2.23251e-05
2.05343e-05
2.68064e-05
2.76189e-05
3.29843e-05
2.95189e-05
2.87611e-05
2.22479e-05
1.45226e-05
2.86149e-05
2.93228e-05
2.11141e-05
2.61251e-05
2.18732e-05
3.07462e-05
1.0481e-05
2.94448e-05
1.25328e-05
3.23621e-05
2.08387e-05
3.38528e-05
3.42359e-05
2.93474e-05
2.72725e-05
3.74045e-05
2.68372e-05
1.63153e-05
1.10803e-05
9.13445e-06
1.24646e-05
2.59842e-05
1.19681e-05
2.06722e-05
2.06868e-05
3.48224e-05
1.68769e-05
2.28346e-05
2.77864e-05
2.69763e-05
2.61616e-05
2.24436e-05
3.27634e-05
1.57543e-05
2.64947e-05
1.27943e-05
2.59102e-05
2.41885e-05
2.17037e-05
2.63812e-05
2.77586e-05
2.39137e-05
1.8086e-05
2.08088e-05
3.14958e-05
1.99167e-05
1.5792e-05
2.77847e-05
2.62862e-05
2.07331e-05
3.59919e-05
2.37816e-05
2.96034e-05
2.65002e-05
2.5167e-05
2.72926e-05
1.72251e-05
2.41918e-05
3.52376e-05
2.30477e-05
2.64365e-05
2.36698e-05
2.26797e-05
2.59792e-05
2.23401e-05
1.09884e-05
2.59404e-05
2.39183e-05
3.74462e-05
2.77943e-05
2.38459e-05
2.55752e-05
2.67723e-05
1.29958e-05
2.26785e-05
2.96301e-05
2.31373e-05
2.71386e-05
1.08866e-05
1.75271e-05
2.47263e-05
2.2855e-05
2.01054e-05
2.1303e-05
1.92367e-05
1.85697e-05
9.83331e-06
1.60129e-05
2.63796e-05
1.84924e-05
2.60594e-05
2.47119e-05
2.55868e-05
2.34799e-05
2.20859e-05
1.75809e-05
2.6654e-05
2.41893e-05
1.91336e-05
3.30243e-05
1.93621e-05
2.14795e-05
2.39311e-05
3.291e-05
1.38091e-05
2.70836e-05
1.5237e-05
2.03531e-05
1.51106e-05
1.13135e-05
1.55203e-05
2.09507e-05
2.53169e-05
2.5451e-05
1.71661e-05
1.98954e-05
2.53518e-05
2.015e-05
1.44448e-05
1.93297e-05
2.93079e-05
2.06181e-05
2.02231e-05
2.51108e-05
2.74852e-05
2.01182e-05
1.17993e-05
1.95602e-05
2.03385e-05
1.5298e-05
2.73957e-05
2.87808e-05
2.66365e-05
3.04892e-05
2.33721e-05
1.07507e-05
9.15834e-06
1.65052e-05
2.50047e-05
1.2888e-05
2.49394e-05
2.0141e-05
1.38266e-05
2.89778e-05
2.76339e-05
2.58329e-05
2.06527e-05
3.00145e-05
2.58112e-05
2.02997e-05
1.4455e-05
2.45765e-05
2.59326e-05
2.13979e-05
3.42812e-05
2.11664e-05
1.0861e-05
1.48034e-05
8.81e-06
1.63718e-05
2.39237e-05
1.97152e-05
1.87716e-05
2.02559e-05
1.20853e-05
2.30779e-05
2.07698e-05
2.88607e-05
2.22696e-05
3.09131e-05
3.30516e-05
2.62001e-05
2.52945e-05
2.31171e-05
1.00719e-05
2.0993e-05
1.44362e-05
3.57897e-05
2.6301e-05
1.95477e-05
2.93594e-05
1.82453e-05
1.69828e-05
2.05276e-05
2.84918e-05
2.78682e-05
1.33235e-05
2.35541e-05
9.33123e-06
2.93815e-05
3.05822e-05
1.60774e-05
2.59676e-05
1.83707e-05
2.38401e-05
2.72838e-05
2.41606e-05
2.161e-05
1.43797e-05
3.06483e-05
9.43979e-06
2.1102e-05
1.55215e-05
2.35069e-05
3.46214e-05
1.92024e-05
2.29331e-05
3.27932e-05
2.65302e-05
2.9836e-05
9.05757e-06
1.57181e-05
2.65639e-05
3.18481e-05
1.71934e-05
3.02317e-05
2.71417e-05
1.76653e-05
2.7232e-05
2.02249e-05
2.98232e-05
3.42714e-05
2.82941e-05
2.68889e-05
2.16623e-05
2.9695e-05
1.07218e-05
2.88262e-05
3.20918e-05
8.55509e-06
1.39678e-05
2.12862e-05
1.97253e-05
4.43302e-05
1.79961e-05
1.41816e-05
2.33394e-05
0.000239005
1.64909e-05
1.4778e-05
3.90647e-05
2.03829e-05
2.43727e-05
1.82154e-05
0.000233388
2.94246e-05
3.32815e-05
2.36545e-05
2.49694e-05
0.000213178
2.93896e-05
0.000242578
1.62088e-05
1.82318e-05
0.000180873
0.00013512
1.84279e-05
0.000179203
0.000197
0.000191439
0.000230862
0.000190462
0.000235043
0.000110964
1.99512e-05
8.47961e-06
0.000239485
0.000241363
0.000191512
0.000163462
0.000145755
0.000200078
0.000195436
0.000182417
3.95027e-05
2.09398e-05
2.46432e-05
0.000173371
0.000156496
0.000162943
0.000175921
0.000158051
0.000207647
0.000194172
0.000176308
0.00021322
0.000184738
7.48151e-05
2.63391e-05
1.82027e-05
0.000226563
0.000192025
0.000154269
0.000156524
0.000143757
2.67324e-05
0.000234124
0.000162604
0.000102739
0.000142254
2.76294e-05
0.000247259
0.000166324
0.00010409
0.000118525
5.88321e-05
2.90964e-05
2.65438e-05
1.94084e-05
2.88253e-05
0.000105338
0.000175581
0.000165692
0.000171068
0.000138772
0.000112052
3.53001e-05
3.93726e-05
0.00015338
0.000203475
0.00017515
0.000123626
0.000105535
0.000149504
0.000229446
0.000163441
0.000142544
8.68727e-05
0.000134063
0.000207111
0.000267182
0.000120108
0.000247334
0.000233414
0.000176947
8.11108e-05
0.000108835
1.39043e-05
1.92342e-05
0.000305827
0.000237079
0.000192831
0.000159787
0.000147167
0.000202954
0.000175033
6.13925e-05
0.000224792
0.000218453
7.27735e-05
2.08296e-05
0.000223872
0.000174665
0.000128894
0.000150815
0.000122979
0.000111661
0.000220314
5.51756e-05
0.000109797
3.07142e-05
2.09331e-05
2.0688e-05
0.000132804
0.000153687
0.000207583
0.000147358
0.000205265
0.000138818
0.00015044
7.70106e-05
0.000237836
0.000217484
0.000168945
0.000147081
0.00016933
0.000153575
0.000172732
0.000136328
0.000115059
0.000138047
0.000110262
0.000154635
0.000208919
0.000116567
0.000133152
9.06839e-05
0.000190211
0.000113528
0.000183435
0.000205836
0.000151986
0.000103838
0.000242887
0.000163307
0.000129804
0.000209142
8.69788e-05
0.000157276
0.000171494
0.000173448
0.000173121
0.000168024
2.59537e-05
0.000226534
0.000185195
0.000191805
0.000230961
0.000212215
0.000103833
0.000184758
0.000149463
0.000189756
0.000149464
0.000189558
0.000177503
0.000259527
0.000170724
0.000179076
0.000134984
9.42517e-05
0.000256826
0.000112549
0.000191278
0.000102613
0.000112481
6.59138e-05
0.00017226
0.000126631
0.000144976
0.000146648
2.056e-05
0.000165607
0.000171964
0.00012685
0.000199867
0.000221675
0.00020788
0.000121231
0.000188913
0.000104728
9.68559e-05
5.98462e-05
0.000120549
0.000194876
0.0001307
0.000160939
0.000105318
0.000108624
0.000157578
0.000137974
0.000121992
8.29858e-05
2.12891e-05
0.000220519
0.000261383
0.000144016
0.000159971
0.000108722
0.00021864
0.000171517
0.00014245
0.000220874
0.000221104
0.000157972
0.000198423
0.000194896
0.000188921
0.000168877
0.000123465
0.000148256
0.00013804
9.59486e-05
3.34939e-05
0.000242847
0.000249046
0.000180232
0.000189717
0.000182446
0.000150911
0.000155593
0.000103714
0.000190449
0.000137372
0.000122169
0.000179401
0.000148489
0.000141619
0.000145593
0.000135466
7.98742e-05
0.00012119
9.4099e-05
0.000204272
0.000194845
0.00015944
6.44501e-05
0.000181838
0.000153935
0.000231851
0.000228003
0.000120521
0.000209271
0.00019993
0.000183719
0.000193693
8.72078e-05
0.000172288
0.000123793
0.000126544
0.000116903
8.38276e-05
6.5948e-05
3.12163e-05
0.000199814
0.000230013
7.80148e-05
0.000112986
0.000200855
0.000125526
0.00017792
0.000173308
0.000170325
0.000125566
9.41692e-05
2.9373e-05
2.76148e-05
0.000244195
0.00018933
0.000109004
0.000106794
0.000104031
0.000275085
0.000127679
0.000198632
0.000183657
0.000106327
0.000163698
9.19108e-05
0.000129377
0.00010987
9.86059e-05
0.000260043
0.000183101
0.000216332
0.000181809
0.000147759
0.000131557
0.000177535
0.00017783
0.000197655
0.000116446
0.000191616
0.000109227
0.000107844
0.000152526
0.000107697
0.000143417
0.000103035
0.000123948
0.000115046
8.70665e-05
2.93789e-05
2.11042e-05
0.000166162
0.000128095
0.000216595
0.000149035
0.000188414
0.000175212
0.000144619
0.000196247
0.000187385
0.000167917
6.91224e-05
0.000181017
0.000122462
0.000125339
0.000125637
0.000130197
0.000105134
0.000103848
8.67842e-05
8.49e-05
0.000335646
0.000248347
0.000133162
0.000152237
0.000167513
6.76451e-05
0.000216639
0.000131226
0.0002004
0.000137666
9.46312e-05
7.78039e-05
7.21027e-05
2.08277e-05
0.000214766
0.000169624
0.000145685
0.000180665
0.000222573
0.000180378
0.000196964
0.000218638
0.000156044
0.00018641
0.00016183
0.000167526
0.000160919
0.000148619
0.000170196
0.000155024
0.000140707
0.000142018
0.000141152
0.000110423
8.6532e-05
8.62745e-05
2.09475e-05
2.51913e-05
0.000151934
0.000190492
0.000148559
0.000157465
0.000150717
0.000262215
8.63971e-05
0.000106148
0.000124268
0.000201732
0.000170602
0.000117625
0.000168118
0.000133552
0.000152755
0.000150844
0.000131414
0.000129239
9.93088e-05
9.77801e-05
7.79521e-05
1.09779e-05
0.000193502
0.000115765
0.000120447
0.000177697
0.000190393
0.000169647
0.00018974
0.00018092
0.00018724
0.000180683
0.000102843
0.000159111
0.000151213
0.000146483
0.000144504
0.000144796
9.78468e-05
0.000144739
0.000101669
8.22358e-05
0.000108163
0.000101422
9.98242e-05
7.27828e-05
0.000182488
0.000139371
0.000166242
0.000191902
0.000154219
0.000216787
0.00020994
0.000205057
0.000181979
0.000100762
0.000165093
0.000142987
0.00012448
0.000125043
0.000106386
0.000114873
0.00010823
9.60125e-05
9.78435e-05
7.98805e-05
7.75509e-05
2.23513e-05
2.49522e-05
2.69279e-05
0.000222202
0.00021486
0.000121664
0.000118369
0.000101519
0.000105644
0.000228944
0.000181575
0.000196319
0.000161745
0.000158021
0.000159004
0.000153386
0.000122369
0.000109506
7.84022e-05
0.000126692
0.000127197
0.000108625
0.000123916
0.000118298
0.000173879
0.000171613
0.000121438
0.000111089
5.24558e-05
0.000143353
0.000120818
7.37261e-05
0.000142668
0.00014339
0.000197828
0.000159276
7.42491e-05
0.000165776
8.14779e-05
5.60857e-05
0.000158308
0.000150456
0.000140347
0.000140954
0.000133522
0.000131177
7.15808e-05
1.82059e-05
0.000167668
0.000267185
0.000203986
0.000231955
0.000270288
0.000114666
0.00022464
0.000201368
0.000165817
0.000164009
0.00017749
0.000107215
0.00018256
0.000138664
7.30321e-05
0.000163813
6.96275e-05
5.59202e-05
0.000317931
0.00024999
0.000176629
0.000102997
0.000215362
0.000227704
9.44056e-05
0.00013843
0.000196507
0.000164164
7.87663e-05
0.000194527
0.000155975
0.000133773
0.000176488
0.000146957
0.00014414
7.1554e-05
0.000143807
0.000113628
6.82925e-05
0.000233517
0.000160018
0.000176102
0.000176434
0.000215288
0.00017837
0.000155638
0.000201747
0.000189608
0.000200036
0.000196092
0.000162841
0.000154149
8.77965e-05
0.000157788
0.000117228
0.00014035
0.0001331
0.000138727
0.000134522
0.000111085
9.98445e-06
0.000204053
0.000179324
0.000188016
0.000166354
0.000253989
0.000138052
0.000156228
0.000193336
0.000199731
0.000137042
0.000103397
0.000186322
0.000154872
0.000170043
0.000160023
0.000173334
0.00014048
0.000144085
0.00013128
8.96802e-05
0.000116719
7.17529e-05
7.83229e-05
0.000225974
0.000173001
0.000159894
0.00024918
0.00018655
0.000240166
0.000282051
0.000274432
0.000138312
0.00025961
0.000200428
0.000207202
0.000205543
0.000139993
0.000140058
0.000149603
0.000137937
9.36452e-05
0.000124578
5.44949e-05
8.23064e-05
4.43385e-05
1.43681e-05
0.000160836
9.53979e-05
0.000211247
8.18701e-05
0.000233554
0.000112113
0.00017889
0.000159159
0.000163245
0.000191334
0.000188932
0.000103312
0.000157912
0.000128598
0.00014946
0.000131436
0.000122622
0.000105379
9.92017e-05
0.000106647
1.34878e-05
0.000152699
0.000222623
0.000137685
0.000226577
0.000252181
0.000158214
0.000148092
8.52201e-05
0.000130997
0.000157075
0.000145635
8.66123e-05
0.000176436
0.000160506
0.000134608
0.00015743
7.69702e-05
0.000141681
0.000135868
9.0896e-05
0.000125267
9.56137e-05
7.70106e-05
7.34475e-05
0.000210672
0.000189332
0.000200802
0.000146998
0.000112179
0.000236345
0.000164477
0.000155028
0.00015457
0.000134016
0.000120173
0.000123655
0.000110718
0.000106253
9.69477e-05
9.66896e-05
0.000101622
7.58131e-05
7.76265e-05
2.28508e-05
0.000167333
0.000262256
0.0001672
0.000194182
9.51602e-05
0.000222375
0.000185432
0.000146919
0.000203076
0.000176821
0.000159667
0.00015774
0.000155677
0.000128576
0.00013706
9.99261e-05
9.76813e-05
9.60321e-05
9.38956e-05
8.96395e-05
3.34771e-05
0.000197761
0.000156375
0.000186051
0.000175807
0.000265127
0.000117066
0.000241985
0.000241196
0.000161941
0.000231669
0.000200123
0.000215168
0.000122308
0.000132526
9.59578e-05
7.25699e-05
3.13125e-05
0.000187958
0.000157481
0.000127828
0.000173296
0.000131484
0.000130448
0.00017567
0.000213463
0.000158702
8.32428e-05
0.000166504
0.000148104
0.000138911
9.11881e-05
0.000117403
8.88002e-05
5.77585e-05
7.63233e-05
2.51516e-05
0.00023725
0.000222852
0.000208029
0.000174454
0.000140867
0.000120317
0.000244778
0.000180405
0.0002492
0.000230572
6.94783e-05
0.000220035
8.48181e-05
0.000199812
0.000173728
0.000186527
0.000185482
0.000179668
0.000118204
8.42866e-05
9.67369e-05
9.62834e-05
2.64794e-05
2.75088e-05
0.000232424
0.000213616
0.00021596
0.000185495
0.000215637
0.00017459
0.000235605
0.000193466
6.78092e-05
0.000203596
0.000187841
0.000146991
0.00018791
0.000186905
0.000102586
0.000176588
0.000165758
0.000118216
0.000148417
0.000137822
0.000133115
0.000115526
0.000111069
8.16136e-05
8.69269e-05
8.52043e-05
2.1233e-05
0.000210237
0.000183062
0.000124261
0.000233193
0.000234808
0.000125751
0.000118875
0.000212944
0.000193628
0.00016056
0.000176288
0.000150815
0.000127355
0.000135857
0.000114674
2.68404e-05
0.000203173
0.00020002
0.000216122
0.000181153
0.000223911
0.000123733
9.63919e-05
0.000217097
7.56124e-05
0.00021842
0.000146687
0.000137621
0.00018919
0.000102952
0.000145325
0.000199565
0.000105939
0.000166919
0.000144562
0.000106256
0.000123404
0.000132765
0.000112898
0.000107184
9.91203e-05
0.000107833
0.000126703
0.000157522
0.000238346
0.000146321
0.000143819
9.99513e-05
0.00019565
0.000132773
0.000119862
9.99472e-05
0.000171918
0.000138587
0.000123525
7.20312e-05
0.000164988
0.000162036
0.000126416
9.91113e-05
0.000102306
9.29765e-05
6.76915e-05
5.38386e-05
0.00025153
0.000152792
0.000151637
0.00011975
0.000212099
0.00024468
0.000129881
0.000184839
0.00018837
0.000144148
0.000155123
7.53564e-05
0.000145832
0.000144674
0.000132303
0.000131767
0.000131032
0.000127036
8.43001e-05
0.000111966
8.15519e-06
0.000285339
0.000209385
0.00020068
0.000222171
0.000112186
0.000188624
0.000201056
0.00021141
0.00018561
0.00021105
0.000125179
0.000130468
0.000163081
0.000159155
0.000156525
0.000126896
0.000118245
0.00012627
0.00010519
8.10723e-05
9.5339e-05
2.31035e-05
0.000164357
0.000189148
0.000157287
6.07834e-05
0.000163938
0.000156615
0.000158078
0.000153476
0.000141963
0.000126348
0.00013273
0.000124054
0.000127836
0.000121437
0.00011629
0.000105238
0.000103647
1.88798e-05
0.000210705
0.000159712
0.000216121
0.000216092
0.000121081
0.000167377
0.000122995
9.1529e-05
0.000220829
0.000151217
0.000110591
0.000158368
0.00011877
7.24287e-05
0.000165552
0.000159724
0.000133911
0.000116767
0.000110143
0.000117288
0.000114411
6.41719e-05
9.84328e-05
8.61317e-05
7.30159e-05
1.09568e-05
0.000210781
0.000188027
0.000146346
0.00021594
0.000170018
8.10268e-05
9.9524e-05
0.000209913
0.000166238
0.000142568
0.000222732
0.000198557
0.000189498
0.000149122
0.000173476
0.000161447
0.000153712
0.000145491
0.00017095
0.000166552
0.000152039
0.000125179
9.11279e-05
0.000109216
9.7302e-05
0.000131164
0.000161971
0.000116597
0.000101406
0.000283295
9.84416e-05
0.000159337
0.000187035
0.000171322
0.000203485
0.000204668
0.000188034
8.66571e-05
0.000183273
0.000181851
0.00017688
0.00016978
0.000123328
0.00014008
0.000118735
7.42398e-05
2.18335e-05
0.00014925
0.00016506
0.000226254
0.0001279
0.000223798
0.000193651
0.000133421
0.00011506
0.000154262
0.000215471
0.000167849
0.000130305
0.000148677
0.000153327
0.00012888
0.000127506
6.66591e-05
0.000112184
0.000105153
0.000100738
2.21605e-05
3.78926e-05
0.000229509
0.000188339
0.000262828
0.000141374
8.36094e-05
9.10973e-05
0.000203579
0.000182319
0.000157821
0.000127217
0.000174227
0.000143054
0.000143339
0.00014218
0.00013387
8.57496e-05
7.46689e-05
2.85376e-05
2.15362e-05
2.12203e-05
0.000253346
0.000189438
0.000116225
0.000150622
0.000159189
0.000238179
0.000237849
0.000125327
0.000172996
0.000154295
9.93841e-05
0.000186763
0.000171185
0.000154387
0.000139053
0.000132443
0.000113031
0.000100255
8.89858e-05
2.63413e-05
0.000168898
0.000112763
8.50589e-05
0.000178088
0.000169011
0.000249946
0.000209585
0.000183429
0.000143986
0.000141385
0.000172219
0.000126138
0.000167833
0.000150216
0.000147889
0.000123246
0.000120805
0.00013716
0.000102397
0.000103275
8.58853e-05
1.05252e-05
0.000188836
0.00014229
0.000222201
0.000200001
9.61926e-05
0.000182782
0.000119932
0.000171316
0.000147061
0.000103375
0.000170112
0.000166323
0.000127814
0.000164301
8.83784e-05
0.000152915
0.000131787
0.000104375
7.32153e-05
9.08252e-05
8.21866e-05
7.72205e-05
7.0445e-05
0.000177742
0.00014477
0.000126132
0.000110623
0.000201598
0.000117641
0.000141394
0.000230736
0.000222984
0.000202524
6.55759e-05
0.000172968
0.000169156
0.000107024
0.000165555
0.000157559
0.000152333
0.000140205
0.000123875
0.00013605
0.000101821
9.0776e-05
8.50725e-05
6.8612e-05
0.00017277
0.000243747
0.000126447
0.000141955
0.000126182
0.000158365
0.000222077
0.000241217
0.00015934
0.000206972
0.000206042
0.000185402
0.000149162
0.000172158
0.000159769
0.000151498
0.000125324
0.000150227
0.000110386
0.000115279
0.000105019
9.46543e-05
0.000257187
0.000196735
0.000215139
0.000191962
0.000264486
0.000244952
0.000159126
0.000173394
0.00014441
0.000156488
0.000158841
0.000111787
0.000117464
0.000104981
8.19889e-05
6.62749e-05
8.46161e-05
0.000165493
0.000148982
0.000150628
0.000151418
0.000256198
0.000133392
0.000227097
0.000139646
0.000198059
0.00019326
0.000171122
0.0001574
0.000143621
0.000125741
0.000123771
0.000131015
6.66192e-05
0.000121233
0.000117048
0.000117498
8.68211e-05
8.64256e-05
8.42809e-05
4.76686e-05
2.14668e-05
0.00023466
0.000205849
0.0001697
0.000203547
0.000189712
0.000183149
0.000187895
0.000158259
0.000179308
0.000173808
0.00016057
0.000131064
0.000126813
0.000138604
0.000121001
0.000110606
8.25933e-05
0.00022487
0.000220265
0.00017472
0.000123183
0.000121622
0.000175297
0.000207605
0.000100292
0.000199807
0.000173527
7.54685e-05
0.000134389
0.000180159
0.000141997
0.000130788
0.000158803
0.000154935
0.000148689
0.000103678
0.000113351
0.00010945
7.73793e-05
0.000185965
0.000149747
0.000118162
0.000140984
0.000107449
0.000134411
0.000193365
0.000150282
0.000153743
0.000164859
0.000236594
0.000220358
0.000195638
0.000155197
9.67841e-05
0.000189521
0.000171018
0.00012194
0.000168564
0.000154621
0.000149877
0.000136554
0.000142962
0.000122704
0.000109994
8.70638e-05
9.93359e-05
9.26418e-05
2.34401e-05
0.000195843
0.000111666
0.000117952
0.000179632
0.000160004
0.000124598
0.000200112
0.000188941
0.000118764
0.000134703
0.000146083
0.000146458
0.000112073
0.00014645
0.000120724
8.01984e-05
0.000114118
7.51465e-05
6.07388e-05
2.58466e-05
2.1189e-05
0.000159016
0.000279108
8.52553e-05
0.00018722
0.00020023
0.000222522
0.000237051
0.000212875
0.000174432
0.000188403
0.000184428
0.000179656
0.000160883
0.000127628
0.000160258
0.000146493
0.000138982
9.54082e-05
2.38321e-05
0.00015448
0.000154472
0.000145165
0.000226828
0.000104588
5.43273e-05
0.000214053
0.000185818
0.000174232
0.000147742
0.000191534
0.000186394
0.000155186
0.000152541
0.000144158
0.00013348
0.000100544
0.000103037
1.14767e-05
2.3499e-05
0.000199816
0.000182712
0.000177964
0.000198609
0.000169331
0.000164062
0.000267771
0.00016474
0.000206198
0.000187369
0.000173025
9.06967e-05
0.00017425
0.000152755
0.000125359
0.000116877
0.000101812
2.06029e-05
0.000159904
0.000217529
0.000170324
0.000151506
0.000111341
0.00016775
0.000196059
0.000212661
0.000195337
0.000121171
0.000121144
0.000209047
0.000200291
0.000161511
0.000123641
0.000141607
0.000112694
0.000126855
0.000129143
0.000123741
8.15221e-05
0.00010135
7.52722e-05
6.29279e-05
2.51341e-05
0.00018396
0.000207332
0.000138539
0.000182902
0.000100889
9.50058e-05
0.000294814
0.000148586
0.000131347
0.000105592
0.000205966
0.00018382
9.34026e-05
0.00012883
7.85353e-05
0.000198044
0.000168234
0.000119883
0.000155091
0.000138069
0.000121691
7.64533e-05
7.06966e-05
0.000236803
0.000154925
0.000159434
0.000104475
0.000186622
0.000118868
0.000183624
0.000140337
0.000125933
0.000119653
0.000103578
0.000192386
9.49149e-05
0.000162757
0.000153459
0.000170224
9.28522e-05
0.000134933
0.000128608
8.54782e-05
7.92959e-05
0.000115907
2.23697e-05
2.24966e-05
0.000226439
0.00012944
0.000147273
0.000174334
0.000143277
0.000182203
0.000202969
0.000118332
0.000125405
0.000249783
0.000125776
0.000126563
0.000115976
0.000179917
0.000164351
0.00012731
0.000196232
0.000169134
0.000133445
0.000151005
0.000118659
0.000135301
0.000128924
0.000127947
0.000115444
0.000101972
9.18957e-05
6.99932e-05
8.6297e-05
1.84067e-05
1.55404e-05
1.0514e-05
1.5612e-05
1.17511e-05
2.11497e-05
1.19624e-05
1.10936e-05
1.68846e-05
8.86337e-06
1.90968e-05
1.02474e-05
1.33116e-05
1.26441e-05
1.30737e-05
1.68561e-05
1.72489e-05
1.90362e-05
1.92985e-05
2.13268e-05
1.74999e-05
1.48457e-05
1.66846e-05
1.94495e-05
1.42364e-05
1.63143e-05
1.40934e-05
1.33818e-05
1.7855e-05
1.69277e-05
1.89687e-05
1.3325e-05
2.11052e-05
1.96272e-05