/*--------------------------------*- C++ -*----------------------------------*\
| =========                 |                                                 |
| \\      /  F ield         | OpenFOAM: The Open Source CFD Toolbox           |
|  \\    /   O peration     | Version:  v1906                                 |
|   \\  /    A nd           | Web:      www.OpenFOAM.com                      |
|    \\/     M anipulation  |                                                 |
\*---------------------------------------------------------------------------*/
FoamFile
{
    version     2.0;
    format      ascii;
    class       scalarField;
    location    "2.83/lagrangian/coalCloud1";
    object      mass0;
}
// * * * * * * * * * * * * * * * * * * * * * * * * * * * * * * * * * * * * * //


53638
(
2.01854e-10
3.46465e-10
8.49823e-10
1.10817e-10
6.49307e-10
5.13962e-10
1.08225e-10
7.83203e-10
8.11957e-10
4.45931e-10
5.77112e-10
2.63004e-10
2.07181e-09
7.09347e-10
1.48284e-09
1.2278e-10
4.52335e-10
7.55996e-10
8.07531e-10
1.12373e-10
1.03568e-09
4.26064e-10
1.52561e-09
1.93246e-09
1.05596e-09
1.32742e-09
3.98125e-10
1.37645e-09
1.86591e-10
5.24341e-10
1.84647e-10
1.28113e-09
2.29896e-10
2.13594e-10
2.20844e-09
1.5132e-09
1.79703e-09
1.85057e-10
6.14969e-10
4.67505e-10
1.7354e-10
7.94501e-10
6.92396e-10
6.94877e-10
3.60316e-10
1.81091e-09
5.16664e-10
1.69068e-09
3.54387e-10
6.68215e-10
1.91959e-10
5.94342e-10
6.21175e-10
1.49129e-09
1.22394e-09
9.58888e-11
1.61935e-09
1.76522e-09
2.90422e-10
7.8229e-10
4.89245e-10
1.09425e-09
5.4694e-10
1.69138e-10
8.07288e-10
7.54595e-10
6.16984e-10
3.33657e-10
8.94901e-10
4.79366e-10
6.11338e-11
1.79095e-10
1.06629e-09
2.01138e-09
3.5039e-09
4.9041e-10
2.60284e-10
5.42806e-10
6.65724e-10
2.62956e-10
1.50215e-10
1.44848e-09
2.43573e-10
1.27469e-09
1.23166e-10
3.14672e-10
1.07134e-09
2.3753e-10
6.316e-10
3.5778e-10
1.84681e-10
1.00146e-09
1.6176e-09
3.22553e-10
1.64312e-10
2.15912e-10
3.9093e-10
7.9771e-11
2.866e-10
1.49795e-10
6.75297e-10
2.33093e-10
1.18448e-09
5.10596e-10
2.21968e-10
3.89805e-10
1.1535e-10
1.11243e-09
4.89439e-10
1.08064e-09
3.95562e-10
3.60838e-10
8.98452e-10
8.1192e-10
1.72412e-10
3.37535e-10
3.86085e-11
3.1686e-10
1.62755e-10
3.77999e-10
4.77941e-10
2.22729e-09
3.55622e-10
6.75888e-11
2.92382e-10
4.17192e-10
7.95205e-11
2.60567e-10
2.97853e-10
2.65588e-10
2.95178e-10
3.15235e-10
6.49208e-11
5.93882e-10
5.66075e-10
1.99859e-09
8.87366e-10
2.76346e-10
2.78895e-10
5.89601e-10
5.51607e-11
1.62167e-09
5.97528e-10
6.65149e-10
1.48775e-09
5.99724e-10
9.73785e-10
5.27292e-10
9.20792e-10
2.54922e-10
6.31163e-10
5.55719e-10
1.20456e-09
1.7472e-09
9.31764e-11
3.06374e-10
1.8359e-10
2.23815e-10
1.46086e-10
5.0349e-10
7.65798e-10
1.61439e-10
4.45229e-10
5.99416e-10
1.67993e-09
1.22293e-10
7.64127e-10
9.39308e-10
1.25616e-09
1.46809e-09
2.57702e-10
1.62059e-10
1.19444e-09
3.65662e-10
1.56028e-10
8.91329e-10
1.32678e-10
6.98473e-10
4.62121e-10
5.78695e-10
1.78219e-09
2.21342e-10
6.66789e-11
3.21351e-09
2.89508e-10
2.91465e-10
4.3221e-10
1.69155e-10
3.30353e-10
2.08914e-09
3.09397e-10
1.71807e-10
7.1295e-11
8.1635e-10
6.07815e-10
3.18574e-10
1.87775e-10
1.71882e-09
8.85389e-11
1.75912e-10
1.29838e-10
3.47729e-09
4.61908e-10
1.02924e-09
1.4758e-10
8.67361e-10
1.31939e-09
8.7584e-10
1.29681e-10
5.04376e-10
4.42496e-10
3.3526e-10
1.92995e-09
6.1252e-10
7.14796e-10
1.16541e-09
4.053e-10
4.68965e-10
1.55116e-09
2.15498e-10
1.22403e-10
4.32393e-10
6.79077e-10
7.36049e-10
9.24154e-10
9.51416e-11
4.85406e-10
1.65273e-10
1.36948e-09
2.46131e-10
1.1035e-10
3.20544e-10
1.49136e-10
1.7256e-10
3.82212e-10
5.48714e-10
1.06208e-09
1.15965e-09
2.74e-09
1.04734e-10
2.57334e-09
2.99446e-10
8.07493e-10
1.18217e-09
6.56236e-10
3.59545e-10
9.69606e-10
1.07587e-09
1.67585e-09
1.54579e-09
6.85767e-11
2.17629e-09
8.30741e-10
1.55081e-10
1.89446e-09
1.03462e-09
5.64486e-10
3.503e-10
3.47666e-10
2.106e-10
3.85039e-10
2.48607e-09
5.24372e-10
1.97818e-10
2.40721e-10
2.19509e-09
7.36124e-10
1.05143e-10
2.12857e-09
1.14393e-10
1.45121e-09
4.4863e-11
2.07633e-10
3.06905e-09
5.36121e-10
2.94932e-10
2.03857e-10
1.22578e-10
1.90213e-09
1.93574e-09
3.89569e-10
3.88506e-10
2.13407e-09
9.75984e-10
1.20177e-09
1.36726e-10
1.17364e-09
6.4714e-10
1.94974e-09
4.32337e-10
1.91937e-10
3.85467e-10
8.26908e-10
1.32927e-09
1.0443e-09
7.6539e-10
2.35147e-10
8.60786e-10
1.16082e-09
1.87652e-09
1.95446e-09
4.94124e-09
4.46673e-10
1.75326e-09
5.36111e-10
1.1097e-09
1.95223e-09
5.45294e-10
3.71434e-10
1.74347e-09
1.38801e-09
1.65068e-09
4.15573e-10
1.1207e-09
1.28154e-09
7.09688e-10
1.47256e-10
1.22545e-10
1.09101e-09
3.00047e-10
1.44352e-10
3.16824e-10
1.91709e-09
1.1883e-09
2.2117e-10
2.75479e-09
6.28964e-09
6.04147e-10
1.30107e-09
1.87617e-09
9.97246e-10
5.68252e-10
1.78368e-09
6.63953e-11
2.72422e-10
2.3239e-09
5.88848e-10
1.77888e-09
2.3021e-09
5.18302e-09
8.71501e-10
6.13062e-10
2.23789e-09
2.87628e-10
2.59394e-09
1.0695e-09
8.90378e-10
1.96512e-10
2.79257e-10
2.71286e-10
1.07707e-10
3.24174e-10
7.60533e-10
2.27925e-09
5.35398e-11
2.32859e-10
5.93142e-11
1.68063e-09
7.22841e-10
3.61737e-10
1.02755e-09
1.69738e-09
1.05659e-09
1.59702e-10
1.32637e-09
1.88017e-09
2.33918e-09
5.29757e-10
1.08332e-10
3.22022e-10
3.91138e-10
1.65432e-09
8.31628e-10
5.3866e-10
5.20925e-10
7.79906e-10
1.24993e-09
3.60433e-10
4.52151e-10
1.27187e-09
3.18767e-10
9.06225e-10
1.2595e-09
3.49849e-10
4.08294e-10
2.12009e-09
2.48676e-09
2.08907e-09
8.39825e-11
2.93264e-09
1.93978e-09
1.86749e-09
5.08191e-10
5.7768e-10
6.18668e-10
1.04523e-09
4.45933e-10
3.67167e-10
2.02865e-09
1.21785e-09
3.07416e-10
2.27451e-10
4.67216e-09
2.70352e-10
1.11754e-09
1.87047e-09
2.1989e-09
1.85066e-09
3.20732e-10
1.02256e-09
1.47513e-09
4.82426e-10
5.47646e-10
1.14063e-09
1.882e-09
6.62363e-10
3.77529e-10
4.13252e-10
1.94937e-09
9.85427e-10
2.54482e-09
2.57126e-10
8.55184e-10
3.53234e-10
6.15046e-10
2.20601e-09
7.34809e-11
1.69689e-10
1.48036e-10
9.66262e-10
1.92492e-09
2.51744e-10
7.01619e-11
1.51603e-09
3.58058e-10
9.85908e-10
5.30573e-10
8.85352e-10
7.77901e-10
4.62511e-10
1.75078e-09
5.35761e-10
3.50518e-10
1.1577e-09
1.89774e-10
2.66216e-10
2.82765e-10
7.30925e-10
2.31773e-09
3.96239e-10
3.04721e-10
3.42594e-09
3.22786e-10
1.21332e-09
4.24373e-10
2.16547e-09
2.14574e-09
3.95135e-10
8.67078e-10
8.13582e-10
1.09534e-10
1.05531e-10
1.01362e-09
5.39313e-10
2.75442e-09
3.76294e-10
1.58201e-10
7.41458e-10
2.21083e-09
1.06041e-09
7.73073e-10
3.57603e-10
7.84889e-10
9.23231e-10
2.41348e-09
9.35202e-10
3.9035e-09
7.4347e-10
5.58972e-10
9.68546e-10
1.3335e-09
2.34474e-09
1.09132e-09
2.12629e-09
5.09655e-11
4.3543e-10
1.06774e-09
5.96353e-10
2.10555e-09
2.0832e-09
5.90235e-10
6.74559e-10
2.17682e-09
1.72845e-09
1.10962e-09
2.6489e-10
4.73077e-10
1.62146e-09
5.87336e-10
1.99637e-10
2.04275e-09
3.32192e-10
3.33089e-10
1.07049e-09
7.74117e-10
1.90959e-09
4.7672e-10
1.34032e-10
7.68793e-11
1.18704e-10
1.38352e-09
2.40104e-09
2.94797e-09
9.29655e-10
3.62171e-10
1.26267e-09
5.94562e-10
2.06508e-09
1.76916e-09
1.25642e-10
1.79647e-09
1.62132e-09
1.76209e-10
3.4917e-10
1.57649e-09
1.58856e-09
2.17866e-10
8.17401e-10
1.14614e-09
1.724e-09
1.86614e-09
1.33092e-09
2.15207e-09
8.70428e-11
2.76126e-10
5.81892e-10
8.86669e-11
2.16394e-10
1.79545e-09
1.01411e-09
7.08091e-10
1.60411e-09
1.15728e-10
2.18559e-09
9.29404e-10
7.35054e-10
1.72394e-09
7.32312e-11
2.24582e-09
1.99144e-09
1.46306e-09
2.51845e-09
2.0641e-10
8.26363e-10
8.49967e-10
1.33569e-09
2.97249e-10
1.72724e-09
3.18023e-10
6.73103e-10
8.67528e-10
1.56384e-09
1.58103e-09
2.17017e-10
1.85593e-10
2.77022e-09
5.38e-10
5.66454e-10
1.09421e-10
5.76469e-10
2.56572e-09
7.57135e-10
1.88656e-09
1.10412e-10
5.24507e-10
2.35773e-09
1.95722e-10
8.19542e-10
3.6e-10
1.5631e-09
7.63421e-10
2.0628e-10
7.149e-10
1.27213e-09
1.65264e-09
1.66715e-09
2.86537e-10
1.29147e-09
1.68236e-09
1.60584e-09
2.07131e-09
2.06467e-09
3.19516e-10
1.36313e-09
6.2771e-10
1.98804e-09
1.47622e-09
9.11993e-10
1.46771e-09
2.21165e-09
2.99673e-10
2.07293e-09
2.44336e-09
1.73062e-09
1.31716e-09
1.99874e-09
6.97169e-10
4.1018e-10
7.39514e-10
1.67253e-09
1.64652e-09
1.13256e-09
1.54459e-09
1.65604e-09
1.90534e-09
1.79121e-09
9.23187e-10
2.46405e-09
9.80695e-10
1.59488e-09
1.00703e-09
1.23747e-09
1.97791e-09
3.2245e-09
2.90428e-09
1.85066e-10
1.67753e-10
1.03369e-09
2.65442e-10
3.14426e-10
4.68507e-10
2.07537e-10
1.64052e-09
7.22589e-11
7.65858e-10
7.38396e-10
4.89372e-11
9.17143e-10
1.9479e-09
4.08217e-10
8.64581e-10
8.8437e-10
2.05249e-10
6.40358e-10
8.39487e-10
8.12153e-10
7.51736e-10
1.87347e-10
1.80866e-10
2.47899e-09
2.18832e-10
2.86663e-10
7.72837e-10
3.29973e-09
1.24284e-10
1.19791e-09
9.12079e-10
1.64541e-09
1.73076e-09
1.43807e-10
3.3848e-10
1.73069e-09
1.10657e-10
3.66609e-10
1.71375e-09
1.05451e-09
2.10314e-10
7.34054e-10
1.25016e-09
3.92917e-10
8.85028e-10
2.58356e-09
1.95723e-09
3.75068e-10
6.80232e-10
4.38156e-10
2.97171e-09
4.26159e-10
2.57391e-09
1.15987e-09
1.82196e-09
1.89613e-09
8.93347e-10
3.88915e-10
2.87916e-09
3.6779e-10
1.18233e-09
5.3139e-10
1.06667e-10
3.75015e-09
1.20726e-09
1.13789e-09
1.75337e-09
9.67837e-11
4.75284e-10
2.17814e-09
4.18157e-10
1.63401e-09
7.21418e-10
2.40338e-09
3.44215e-09
4.73181e-10
2.08511e-09
1.87125e-10
1.504e-10
3.1277e-10
2.05776e-09
1.33934e-10
2.25495e-09
1.8016e-10
1.22388e-09
8.68548e-10
1.03025e-09
2.09782e-09
5.25265e-10
8.98641e-10
1.65043e-09
4.91099e-10
1.9863e-09
1.28394e-09
6.68575e-10
1.86974e-09
2.97832e-10
5.90784e-09
6.54822e-10
6.28016e-10
1.65345e-09
1.83725e-09
1.91417e-09
4.12147e-10
2.79801e-09
6.58113e-10
5.7694e-10
1.60579e-10
2.75505e-10
2.25645e-09
6.47006e-10
2.6634e-09
9.23607e-10
1.10317e-09
1.52016e-09
2.04122e-09
1.21135e-09
5.63049e-10
1.14869e-09
1.04759e-09
2.41898e-10
5.34452e-11
9.88632e-10
1.92361e-09
2.62215e-10
9.3385e-10
1.32494e-09
1.41061e-09
5.95704e-10
8.81008e-10
6.85548e-10
1.52516e-09
1.66808e-09
2.84133e-09
2.03658e-09
1.88372e-09
8.71901e-10
2.42512e-10
1.85514e-09
1.99627e-09
7.4528e-10
1.4118e-09
8.2859e-10
2.30131e-09
9.11608e-11
2.02127e-09
1.55864e-10
2.68356e-09
7.1649e-10
3.07174e-09
3.17722e-09
2.00128e-09
1.60611e-09
4.14353e-09
1.53043e-09
3.43864e-10
1.0771e-10
6.03459e-11
1.53334e-10
1.38908e-09
1.35731e-10
6.99452e-10
7.00942e-10
3.34331e-09
3.8061e-10
9.42717e-10
1.69862e-09
1.55434e-09
1.41774e-09
8.95116e-10
2.78462e-09
3.096e-10
1.47257e-09
1.65825e-10
1.37724e-09
1.12054e-09
8.09476e-10
1.45373e-09
1.69354e-09
1.08278e-09
4.68409e-10
7.13413e-10
2.47376e-09
6.25541e-10
3.11825e-10
1.6983e-09
1.43809e-09
7.0566e-10
3.69159e-09
1.06493e-09
2.05413e-09
1.47349e-09
1.26211e-09
1.60966e-09
4.04657e-10
1.121e-09
3.46433e-09
9.69354e-10
1.46289e-09
1.04999e-09
9.23663e-10
1.38828e-09
8.82786e-10
1.05052e-10
1.38208e-09
1.0834e-09
4.15741e-09
1.70007e-09
1.0736e-09
1.32451e-09
1.51935e-09
1.73784e-10
9.23513e-10
2.05968e-09
9.80701e-10
1.58257e-09
1.02159e-10
4.26314e-10
1.19696e-09
9.4525e-10
6.43482e-10
7.65463e-10
5.63631e-10
5.07012e-10
7.52836e-11
3.25095e-10
1.45347e-09
5.00706e-10
1.40118e-09
1.19487e-09
1.32632e-09
1.02491e-09
8.52995e-10
4.30256e-10
1.4993e-09
1.12065e-09
5.54617e-10
2.85169e-09
5.74726e-10
7.84648e-10
1.08515e-09
2.82218e-09
2.08497e-10
1.57297e-09
2.80089e-10
6.67558e-10
2.73176e-10
1.14654e-10
2.96008e-10
7.2811e-10
1.28479e-09
1.30532e-09
4.00511e-10
6.23532e-10
1.29012e-09
6.47782e-10
2.38637e-10
5.71846e-10
1.99322e-09
6.93979e-10
6.54854e-10
1.25366e-09
1.64398e-09
6.44719e-10
1.30067e-10
5.92546e-10
6.66131e-10
2.8347e-10
1.62798e-09
1.88761e-09
1.49635e-09
2.24408e-09
1.01087e-09
9.83799e-11
6.08207e-11
3.56008e-10
1.23784e-09
1.69494e-10
1.22817e-09
6.46914e-10
2.0929e-10
1.92663e-09
1.67081e-09
1.36496e-09
6.97479e-10
2.14089e-09
1.36152e-09
6.62321e-10
2.39141e-10
1.17533e-09
1.38082e-09
7.75742e-10
3.18984e-09
7.50834e-10
1.01439e-10
2.56851e-10
5.41413e-11
3.47447e-10
1.08413e-09
6.06745e-10
5.2373e-10
6.58047e-10
1.39757e-10
9.73166e-10
7.0941e-10
1.90335e-09
8.74457e-10
2.33899e-09
2.85877e-09
1.424e-09
1.28139e-09
9.78143e-10
8.08969e-11
7.32524e-10
2.38212e-10
3.62973e-09
1.44051e-09
5.91411e-10
2.00375e-09
4.80898e-10
3.87818e-10
6.84884e-10
1.83131e-09
1.71368e-09
1.87263e-10
1.03467e-09
6.43305e-11
2.00826e-09
2.26469e-09
3.2904e-10
1.38642e-09
4.90882e-10
1.07281e-09
1.60811e-09
1.11666e-09
7.99028e-10
2.35422e-10
2.2794e-09
6.66022e-11
7.43995e-10
2.96078e-10
1.02846e-09
3.28576e-09
5.60618e-10
9.54966e-10
2.79224e-09
1.47851e-09
2.10292e-09
5.8835e-11
3.0747e-10
1.48415e-09
2.5577e-09
4.02423e-10
2.18771e-09
1.58312e-09
4.3648e-10
1.59896e-09
6.55028e-10
2.1002e-09
3.1871e-09
1.79344e-09
1.53929e-09
8.04847e-10
2.07324e-09
9.75897e-11
1.89654e-09
2.61687e-09
4.95763e-11
2.15767e-10
7.63652e-10
6.07673e-10
6.89764e-09
4.61465e-10
2.25828e-10
1.00662e-09
4.80352e-09
3.55085e-10
2.55535e-10
4.72014e-09
6.70503e-10
1.14633e-09
4.78541e-10
4.46944e-09
2.01713e-09
2.91885e-09
1.04796e-09
1.23261e-09
3.40818e-09
2.00993e-09
5.01503e-09
3.37176e-10
4.79835e-10
2.08191e-09
8.67954e-10
4.95481e-10
2.02476e-09
2.68991e-09
2.46847e-09
4.32543e-09
2.43088e-09
4.51466e-09
4.80897e-10
6.28796e-10
4.82756e-11
4.83255e-09
4.89763e-09
2.47132e-09
1.5367e-09
1.08945e-09
2.81797e-09
2.62634e-09
2.1357e-09
4.88068e-09
7.26971e-10
1.18492e-09
1.83345e-09
1.3485e-09
1.52211e-09
1.91555e-09
1.38911e-09
3.14331e-09
2.57573e-09
1.92822e-09
3.3664e-09
2.20513e-09
1.47444e-10
1.44678e-09
4.77538e-10
4.06792e-09
2.47417e-09
1.29174e-09
1.34923e-09
1.04527e-09
1.51257e-09
4.44944e-09
1.51263e-09
3.81545e-10
1.01282e-09
1.66999e-09
5.27441e-09
1.61883e-09
3.96806e-10
5.85822e-10
7.19241e-11
1.95038e-09
1.48077e-09
5.78853e-10
1.89637e-09
4.11338e-10
1.90446e-09
1.60045e-09
1.74796e-09
9.40261e-10
4.94997e-10
3.48279e-09
4.83262e-09
1.26955e-09
2.95292e-09
1.89048e-09
6.64773e-10
4.13585e-10
1.17571e-09
4.14258e-09
1.53127e-09
1.01903e-09
2.30735e-10
8.4774e-10
3.12572e-09
6.53468e-09
6.09619e-10
5.1743e-09
4.35593e-09
1.93307e-09
1.87783e-10
4.53577e-10
2.12839e-10
5.63409e-10
9.79859e-09
4.59348e-09
2.50014e-09
1.43538e-09
1.12142e-09
2.89751e-09
1.8804e-09
8.15743e-11
3.89234e-09
3.57373e-09
1.35629e-10
7.15555e-10
3.94766e-09
1.8748e-09
7.53429e-10
1.20691e-09
6.54378e-10
4.89834e-10
3.67551e-09
5.92557e-11
4.65712e-10
2.29412e-09
7.2627e-10
7.01058e-10
8.24096e-10
1.27717e-09
3.09596e-09
1.12579e-09
2.97212e-09
9.41132e-10
1.18596e-09
1.60691e-10
4.70749e-09
3.60988e-09
1.69658e-09
1.11947e-09
1.70822e-09
1.2744e-09
1.81325e-09
8.91443e-10
5.35926e-10
9.25591e-10
4.71646e-10
1.29664e-09
3.12495e-09
5.57273e-10
8.3059e-10
2.6238e-10
2.42128e-09
5.14832e-10
2.15167e-09
3.01541e-09
1.23386e-09
3.93918e-10
4.8909e-09
1.51832e-09
7.6949e-10
3.13962e-09
2.31518e-10
1.35542e-09
1.74337e-09
1.80237e-09
1.79019e-09
1.63992e-09
1.3842e-09
4.05752e-09
2.22651e-09
2.44298e-09
4.21866e-09
3.28577e-09
3.93862e-10
2.18436e-09
1.1693e-09
2.35308e-09
1.1599e-09
2.39645e-09
1.96769e-09
6.00767e-09
1.75076e-09
2.01205e-09
8.65336e-10
2.94591e-10
5.7729e-09
5.01609e-10
2.4117e-09
3.80138e-10
5.00706e-10
1.00802e-10
1.763e-09
7.14432e-10
1.059e-09
1.09508e-09
6.88128e-10
1.59801e-09
1.78917e-09
7.18146e-10
2.77697e-09
3.75683e-09
3.10747e-09
6.26883e-10
2.33055e-09
4.04138e-10
3.19683e-10
7.54945e-11
6.16353e-10
2.53956e-09
7.84845e-10
1.44254e-09
4.11007e-10
4.50938e-10
1.35105e-09
9.14819e-10
6.38752e-10
2.01072e-10
7.63964e-10
3.7729e-09
6.12947e-09
1.05092e-09
1.44035e-09
4.52187e-10
3.59784e-09
1.76332e-09
1.01702e-09
3.69802e-09
3.69607e-09
1.37279e-09
2.67905e-09
2.54002e-09
2.31565e-09
1.65946e-09
6.6218e-10
1.13076e-09
9.12881e-10
3.10782e-10
2.97507e-09
4.963e-09
5.33157e-09
2.0439e-09
2.36973e-09
2.10899e-09
1.20888e-09
1.32038e-09
3.92506e-10
2.37116e-09
9.07396e-10
6.41544e-10
1.9853e-09
1.13524e-09
9.8657e-10
1.06835e-09
8.66048e-10
1.79292e-10
6.26237e-10
2.93218e-10
2.95405e-09
2.57008e-09
1.42604e-09
9.4441e-11
2.09033e-09
1.28276e-09
4.26691e-09
4.04875e-09
6.15925e-10
3.13762e-09
2.73929e-09
2.13584e-09
2.49303e-09
2.33349e-10
1.76393e-09
6.64891e-10
7.05955e-10
5.59221e-10
2.07253e-10
1.00912e-10
2.4085e-09
2.79117e-09
4.17967e-09
1.67135e-10
5.07479e-10
2.7847e-09
6.95898e-10
1.93981e-09
1.79287e-09
1.70246e-09
6.89693e-10
2.9381e-10
2.00653e-09
1.66735e-09
5.05245e-09
2.38779e-09
4.55692e-10
4.28541e-10
3.96125e-10
7.07888e-09
7.32324e-10
2.69174e-09
2.13498e-09
4.22928e-10
1.51299e-09
2.73174e-10
7.53706e-10
4.65549e-10
3.37325e-10
6.02362e-09
2.13429e-09
3.47487e-09
2.08443e-09
1.13311e-09
8.01085e-10
1.93597e-09
1.94513e-09
2.65056e-09
5.55537e-10
2.41724e-09
4.58488e-10
4.41296e-10
1.23164e-09
4.39491e-10
1.02056e-09
3.84849e-10
6.63342e-10
5.32782e-10
2.32217e-10
2.00773e-09
7.44228e-10
1.61412e-09
7.39498e-10
3.48049e-09
1.15708e-09
2.29968e-09
1.85487e-09
1.05603e-09
2.59007e-09
2.25803e-09
1.634e-09
1.16209e-10
2.03734e-09
6.42743e-10
6.87569e-10
6.91858e-10
7.66498e-10
4.08787e-10
3.94037e-10
2.29965e-10
2.1531e-10
1.28242e-08
5.26699e-09
8.30773e-10
1.24137e-09
1.63728e-09
1.08945e-10
3.47486e-09
7.94582e-10
2.75606e-09
9.03604e-10
2.98156e-10
1.65709e-10
1.31885e-10
7.15362e-10
3.4663e-09
1.71711e-09
1.08789e-09
2.05686e-09
3.78457e-09
2.03747e-09
2.63147e-09
3.57692e-09
1.32533e-09
2.22228e-09
1.46415e-09
1.62121e-09
1.43947e-09
1.14003e-09
1.69571e-09
1.28878e-09
9.67834e-10
9.93366e-10
9.72831e-10
4.71653e-10
2.27966e-10
2.25937e-10
7.27773e-10
1.26576e-09
1.23398e-09
2.43202e-09
1.15355e-09
1.37369e-09
1.20455e-09
6.14213e-09
2.26908e-10
4.20804e-10
6.75178e-10
2.81009e-09
1.71176e-09
5.72584e-10
1.63471e-09
8.30583e-10
1.22956e-09
1.18449e-09
7.87193e-10
7.49288e-10
3.44591e-10
3.28922e-10
1.66657e-10
1.04751e-10
2.54917e-09
5.45853e-10
6.14796e-10
1.9594e-09
2.39424e-09
1.70512e-09
2.34505e-09
2.0354e-09
2.25096e-09
2.02485e-09
3.82705e-10
1.38783e-09
1.19636e-09
1.08875e-09
1.04507e-09
1.04918e-09
3.29594e-10
1.04761e-09
3.69749e-10
1.9567e-10
4.45114e-10
3.6706e-10
3.49984e-10
1.35652e-10
2.13816e-09
9.52477e-10
1.61221e-09
2.43794e-09
1.28281e-09
3.48219e-09
3.16321e-09
2.94986e-09
2.07253e-09
3.59943e-10
1.54833e-09
1.01385e-09
6.72478e-10
6.8111e-10
4.23639e-10
5.29389e-10
4.44203e-10
3.11403e-10
3.29562e-10
1.79334e-10
1.64097e-10
8.84121e-10
1.23006e-09
1.54599e-09
3.82849e-09
3.45336e-09
6.33621e-10
5.83522e-10
3.68141e-10
4.1483e-10
4.09963e-09
2.05595e-09
2.59039e-09
1.45667e-09
1.35913e-09
1.38436e-09
1.24415e-09
6.38478e-10
4.62017e-10
1.69561e-10
7.05827e-10
7.14086e-10
4.5032e-10
6.61031e-10
5.76496e-10
1.84961e-09
1.76224e-09
6.3009e-10
4.82347e-10
5.09058e-11
1.03648e-09
6.20484e-10
1.41025e-10
1.01865e-09
1.03269e-09
2.65461e-09
1.39473e-09
1.44018e-10
1.57023e-09
1.9031e-10
6.20891e-11
1.36806e-09
1.17466e-09
9.55361e-10
9.67585e-10
8.23997e-10
7.81952e-10
1.29042e-10
4.7779e-10
1.65839e-09
6.50432e-09
2.93879e-09
4.28221e-09
6.71903e-09
5.30447e-10
3.86752e-09
2.79307e-09
1.57617e-09
1.52538e-09
1.92311e-09
4.33616e-10
2.08991e-09
9.30057e-10
1.37052e-10
1.51205e-09
1.18764e-10
6.15242e-11
1.0989e-08
5.37161e-09
1.93876e-09
3.8443e-10
3.43599e-09
4.04162e-09
2.96029e-10
9.33315e-10
2.60257e-09
1.53118e-09
1.71934e-10
2.51949e-09
1.31296e-09
8.37038e-10
1.89024e-09
1.09499e-09
1.03381e-09
1.28897e-10
1.02654e-09
5.11277e-10
1.12062e-10
4.48016e-09
1.44161e-09
1.90451e-09
1.90595e-09
3.41086e-09
1.95599e-09
1.31126e-09
2.81117e-09
2.33933e-09
2.73895e-09
2.57992e-09
1.4886e-09
1.26578e-09
2.38107e-10
1.35229e-09
5.6421e-10
9.55302e-10
8.18241e-10
9.22435e-10
8.41906e-10
4.78173e-10
7.88084e-11
2.96509e-09
2.02887e-09
2.32261e-09
1.61763e-09
5.57315e-09
9.25697e-10
1.32536e-09
2.47776e-09
2.72475e-09
8.99132e-10
3.88926e-10
2.21985e-09
1.28425e-09
1.68876e-09
1.41306e-09
1.7872e-09
9.62329e-10
1.03225e-09
7.8532e-10
2.53764e-10
5.52929e-10
1.29975e-10
1.69047e-10
4.0297e-09
1.82175e-09
1.43826e-09
5.31478e-09
2.25947e-09
4.73505e-09
7.61626e-09
7.01907e-09
9.30942e-10
5.94832e-09
2.76783e-09
3.04448e-09
2.97205e-09
9.50561e-10
9.51263e-10
1.15374e-09
9.06608e-10
2.88933e-10
6.70245e-10
5.69406e-11
1.96174e-10
3.06678e-11
2.34854e-10
1.46383e-09
3.05481e-10
3.24179e-09
1.93093e-10
4.3395e-09
4.95801e-10
1.96955e-09
1.39692e-09
1.50288e-09
2.39907e-09
2.31068e-09
3.87966e-10
1.3545e-09
7.39231e-10
1.15022e-09
7.85266e-10
6.41229e-10
4.1114e-10
3.43477e-10
4.24838e-10
1.9428e-10
1.25269e-09
3.80665e-09
9.18324e-10
3.97602e-09
5.45616e-09
1.37874e-09
1.13488e-09
2.17755e-10
7.89413e-10
1.34291e-09
1.07494e-09
2.28602e-10
1.88322e-09
1.42138e-09
8.45747e-10
1.34194e-09
1.60439e-10
9.81183e-10
8.6665e-10
2.64226e-10
6.81519e-10
3.07077e-10
1.60691e-10
1.39403e-10
3.2849e-09
2.3573e-09
2.79641e-09
1.11124e-09
4.96674e-10
4.49462e-09
1.53163e-09
1.28487e-09
1.27068e-09
8.33455e-10
6.03635e-10
6.55068e-10
4.72614e-10
4.18654e-10
3.20593e-10
3.17271e-10
3.67028e-10
1.53311e-10
1.64577e-10
9.44729e-10
1.64848e-09
6.17038e-09
1.63937e-09
2.52554e-09
3.03184e-10
3.7537e-09
2.18675e-09
1.10211e-09
2.86033e-09
1.89457e-09
1.4004e-09
1.3494e-09
1.29781e-09
7.3878e-10
8.91292e-10
3.51056e-10
3.27925e-10
3.11595e-10
2.91257e-10
2.53419e-10
2.9706e-09
2.70114e-09
1.34536e-09
2.2431e-09
1.89445e-09
6.3381e-09
5.64466e-10
4.82689e-09
4.77436e-09
1.47288e-09
4.23404e-09
2.74311e-09
3.39773e-09
6.3922e-10
8.04104e-10
3.10872e-10
1.34465e-10
2.43083e-09
2.32115e-09
1.37411e-09
7.34878e-10
1.80788e-09
7.99757e-10
7.80998e-10
1.86924e-09
3.3174e-09
1.38362e-09
2.02946e-10
1.584e-09
1.12113e-09
9.24467e-10
2.66781e-10
5.61221e-10
2.46367e-10
6.77936e-11
1.56427e-10
1.25978e-09
4.64676e-09
3.8673e-09
3.13134e-09
1.85793e-09
9.83484e-10
6.12808e-10
4.99865e-09
2.03186e-09
5.26103e-09
4.17897e-09
1.1802e-10
3.63063e-09
2.14687e-10
2.72465e-09
1.80063e-09
2.2201e-09
2.18333e-09
1.98585e-09
5.72713e-10
2.10677e-10
3.17142e-10
3.12697e-10
1.47003e-09
1.64822e-09
4.31786e-09
3.36998e-09
3.45862e-09
2.20696e-09
3.43557e-09
1.8388e-09
4.45362e-09
2.48307e-09
1.09717e-10
2.88511e-09
2.27251e-09
1.10265e-09
2.27193e-09
2.23315e-09
3.79843e-10
1.886e-09
1.56388e-09
5.75439e-10
1.12502e-09
9.03415e-10
8.16353e-10
5.36411e-10
4.76178e-10
1.91262e-10
2.31102e-10
2.17633e-10
7.57944e-10
3.23803e-09
2.12364e-09
6.75057e-10
4.3209e-09
4.40529e-09
6.9964e-10
5.91032e-10
3.29249e-09
2.48468e-09
1.42897e-09
1.87962e-09
1.17963e-09
7.16324e-10
8.64828e-10
5.23146e-10
1.53097e-09
2.94801e-09
2.77609e-09
3.48047e-09
2.07137e-09
3.84432e-09
6.66493e-10
3.1511e-10
3.49652e-09
1.52102e-10
3.55568e-09
1.0995e-09
9.11147e-10
2.31899e-09
3.83928e-10
1.06416e-09
2.71322e-09
4.18317e-10
1.59634e-09
1.04243e-09
4.2208e-10
6.52e-10
8.07509e-10
5.00963e-10
4.29219e-10
3.41385e-10
4.35859e-10
7.15644e-10
1.37265e-09
4.62709e-09
1.1022e-09
1.04662e-09
3.51322e-10
2.57485e-09
8.15852e-10
6.04369e-10
3.51279e-10
1.7438e-09
9.24113e-10
6.57761e-10
1.31493e-10
1.54001e-09
1.4595e-09
6.9989e-10
3.40272e-10
3.72965e-10
2.81531e-10
1.0913e-10
5.49062e-11
5.48928e-09
1.255e-09
1.22676e-09
6.04174e-10
3.26233e-09
4.97859e-09
7.65432e-10
2.16209e-09
2.28423e-09
1.03389e-09
1.28196e-09
1.50557e-10
1.06683e-09
1.04182e-09
7.98893e-10
7.89218e-10
7.76218e-10
7.08127e-10
2.10778e-10
4.86776e-10
4.29441e-11
8.02891e-09
3.21526e-09
2.84321e-09
3.79082e-09
4.96776e-10
2.30507e-09
2.77945e-09
3.2229e-09
2.1898e-09
3.20373e-09
6.8654e-10
7.73015e-10
1.4872e-09
1.38439e-09
1.31651e-09
7.07496e-10
5.72928e-10
6.95294e-10
4.05937e-10
1.87481e-10
3.02712e-10
9.76413e-10
1.56208e-09
2.31939e-09
1.34359e-09
7.90147e-11
1.51033e-09
1.32101e-09
1.35756e-09
1.24238e-09
9.86881e-10
6.98628e-10
8.06161e-10
6.59594e-10
7.2099e-10
6.1903e-10
5.44361e-10
4.05354e-10
3.88455e-10
5.32836e-10
3.29128e-09
1.43336e-09
3.46812e-09
3.46097e-09
6.24546e-10
1.62511e-09
6.54646e-10
2.69785e-10
3.67091e-09
1.20031e-09
4.75887e-10
1.37034e-09
5.85649e-10
1.33682e-10
1.55458e-09
1.39726e-09
8.2747e-10
5.52405e-10
4.6411e-10
5.58145e-10
5.18583e-10
9.2977e-11
3.33302e-10
2.24817e-10
1.3696e-10
1.04148e-10
3.27597e-09
2.29776e-09
1.10277e-09
3.45261e-09
1.70393e-09
1.87181e-10
3.46836e-10
3.16683e-09
1.58782e-09
1.00907e-09
3.7602e-09
2.67459e-09
2.32957e-09
1.14364e-09
1.78641e-09
1.4452e-09
1.2492e-09
1.06202e-09
1.71101e-09
1.58283e-09
1.2066e-09
6.79078e-10
2.66204e-10
4.51652e-10
3.21106e-10
7.93943e-10
1.48593e-09
5.57701e-10
3.66889e-10
7.70356e-09
3.35642e-10
1.40219e-09
2.24038e-09
1.7283e-09
2.87235e-09
2.92231e-09
2.27374e-09
2.28957e-10
2.10384e-09
2.05522e-09
1.89253e-09
1.67511e-09
6.50636e-10
9.46791e-10
5.78626e-10
1.43963e-10
8.24081e-10
1.16971e-09
1.56913e-09
3.95693e-09
7.35546e-10
3.81847e-09
2.48928e-09
8.31822e-10
5.35938e-10
1.27231e-09
3.40592e-09
1.62175e-09
7.67503e-10
1.13102e-09
1.23681e-09
7.40623e-10
7.16592e-10
1.04212e-10
4.88871e-10
4.04779e-10
3.55412e-10
8.61668e-10
4.3079e-09
4.1943e-09
2.32732e-09
6.19405e-09
9.87745e-10
2.05639e-10
2.65985e-10
2.87846e-09
2.0739e-09
1.35388e-09
7.16151e-10
1.80936e-09
1.01046e-09
1.01446e-09
9.87958e-10
8.27489e-10
2.21053e-10
1.46474e-10
1.84015e-09
7.90878e-10
7.56581e-10
5.55745e-09
2.3507e-09
5.52376e-10
1.19722e-09
1.39899e-09
4.59516e-09
4.57152e-09
6.90785e-10
1.77992e-09
1.27027e-09
3.45375e-10
2.22385e-09
1.71594e-09
1.26177e-09
9.2445e-10
7.999e-10
4.99602e-10
3.51233e-10
2.47276e-10
1.44715e-09
1.67697e-09
5.04479e-10
2.16539e-10
1.94805e-09
1.66385e-09
5.29929e-09
3.13697e-09
2.11149e-09
1.03361e-09
9.80241e-10
1.75134e-09
6.98184e-10
1.62011e-09
1.16524e-09
1.11014e-09
6.4759e-10
6.10294e-10
8.87506e-10
3.73927e-10
3.8335e-10
2.21782e-10
9.23203e-11
2.3302e-09
1.01198e-09
3.73509e-09
2.73034e-09
3.13159e-10
2.09077e-09
6.0481e-10
1.72322e-09
1.09873e-09
3.88677e-10
1.68356e-09
1.57423e-09
7.24048e-10
1.51806e-09
2.42873e-10
1.22586e-09
7.87777e-10
3.95487e-10
1.38085e-10
2.61457e-10
1.94818e-10
1.62008e-10
1.22996e-10
1.97565e-09
1.06753e-09
7.06025e-10
4.76298e-10
2.80687e-09
5.72818e-10
9.83109e-10
4.17431e-09
3.76992e-09
2.83334e-09
9.92167e-11
1.77044e-09
1.65734e-09
4.2952e-10
1.55244e-09
1.33992e-09
1.21415e-09
9.48948e-10
6.58675e-10
8.65837e-10
3.67591e-10
2.60925e-10
2.15451e-10
1.13642e-10
1.81247e-09
4.95868e-09
7.11321e-10
1.00644e-09
7.06863e-10
1.3757e-09
3.72842e-09
4.76486e-09
1.39575e-09
3.02219e-09
2.98171e-09
2.17758e-09
1.1448e-09
1.74663e-09
1.39804e-09
1.19202e-09
6.80279e-10
1.16238e-09
4.66196e-10
5.29185e-10
4.01322e-10
2.95987e-10
5.86289e-09
2.6391e-09
3.39922e-09
2.42855e-09
6.27075e-09
4.99226e-09
1.39214e-09
1.78912e-09
1.03942e-09
1.31544e-09
1.37431e-09
4.84566e-10
5.59467e-10
4.01602e-10
1.93912e-10
1.02421e-10
2.11862e-10
1.59469e-09
1.16344e-09
1.19206e-09
1.20688e-09
5.70198e-09
8.268e-10
3.97916e-09
9.42275e-10
2.64632e-09
2.45999e-09
1.71277e-09
1.33756e-09
1.01907e-09
6.86325e-10
6.54851e-10
7.73545e-10
1.04025e-10
6.14303e-10
5.53472e-10
5.59853e-10
2.29464e-10
2.26309e-10
2.09258e-10
3.81099e-11
7.83251e-10
4.43892e-09
3.0129e-09
1.68981e-09
2.87592e-09
2.33534e-09
2.09888e-09
2.26469e-09
1.35925e-09
1.96761e-09
1.79321e-09
1.41864e-09
7.76369e-10
7.03837e-10
9.14483e-10
6.12294e-10
4.70556e-10
1.98232e-10
3.94017e-09
3.69245e-09
1.87568e-09
6.57654e-10
6.32954e-10
1.87052e-09
3.0575e-09
3.54928e-10
2.72836e-09
1.79665e-09
1.5123e-10
8.39479e-10
1.99512e-09
9.84426e-10
7.71277e-10
1.37013e-09
1.27333e-09
1.1265e-09
3.88791e-10
5.02883e-10
4.53256e-10
1.62582e-10
2.24152e-09
1.18146e-09
5.80456e-10
9.85934e-10
4.36467e-10
8.54362e-10
2.4816e-09
1.18045e-09
1.25803e-09
1.54483e-09
4.49509e-09
3.63994e-09
2.55361e-09
1.28646e-09
3.18972e-10
2.31993e-09
1.71091e-09
6.29596e-10
1.63618e-09
1.2675e-09
1.15539e-09
8.74517e-10
1.0021e-09
6.37762e-10
4.61153e-10
2.32195e-10
3.40083e-10
2.76308e-10
1.01971e-09
2.62934e-09
4.89902e-10
5.77375e-10
1.98833e-09
1.41388e-09
6.75223e-10
2.72765e-09
2.29848e-09
5.81993e-10
8.4222e-10
1.07033e-09
1.07842e-09
4.88047e-10
1.07638e-09
6.07452e-10
1.81484e-10
5.12847e-10
1.49302e-10
7.88386e-11
1.36714e-09
7.53239e-10
1.39905e-09
7.36512e-09
2.18024e-10
2.25259e-09
2.74456e-09
3.75e-09
4.52423e-09
3.2829e-09
1.81485e-09
2.27877e-09
2.1384e-09
1.97761e-09
1.42603e-09
7.20164e-10
1.40848e-09
1.07721e-09
9.21057e-10
3.02075e-10
1.07173e-09
1.29705e-09
1.29685e-09
1.07629e-09
3.986e-09
4.02516e-10
5.64596e-11
3.34384e-09
2.1968e-09
1.81424e-09
1.11344e-09
2.39582e-09
2.20949e-09
1.28303e-09
1.21707e-09
1.02842e-09
8.18353e-10
3.52774e-10
3.7848e-10
1.19689e-10
1.02743e-09
2.78584e-09
2.12312e-09
1.94625e-09
2.68577e-09
1.67522e-09
1.52541e-09
6.50462e-09
1.54141e-09
2.98153e-09
2.24104e-09
1.7696e-09
2.62491e-10
1.80522e-09
1.21974e-09
6.7755e-10
5.51149e-10
3.65146e-10
6.92442e-10
1.43853e-09
3.54324e-09
1.72603e-09
1.22357e-09
4.85628e-10
1.63406e-09
2.58353e-09
3.28356e-09
2.55406e-09
6.25953e-10
6.23977e-10
3.11121e-09
2.73734e-09
1.44605e-09
6.56279e-10
9.7505e-10
4.96898e-10
7.03095e-10
7.41048e-10
6.51723e-10
1.90619e-10
3.60146e-10
1.49321e-10
8.7674e-11
1.25716e-09
2.15456e-09
3.05843e-09
9.35532e-10
2.11494e-09
3.61308e-10
3.0171e-10
8.66874e-09
1.13578e-09
7.91844e-10
4.14219e-10
2.97243e-09
2.11905e-09
2.86693e-10
7.40282e-10
1.70426e-10
2.64251e-09
1.62762e-09
5.97225e-10
1.27568e-09
9.02514e-10
6.19934e-10
1.57228e-10
1.24145e-10
4.56379e-09
1.30829e-09
1.41875e-09
4.01212e-10
2.23366e-09
5.90936e-10
2.12301e-09
9.57793e-10
6.94892e-10
5.97373e-10
3.9027e-10
2.42361e-09
3.00846e-10
1.47485e-09
1.23816e-09
1.68479e-09
2.79745e-10
8.4272e-10
7.30514e-10
2.19269e-10
1.75425e-10
5.36277e-10
8.863e-10
9.01466e-10
3.98419e-09
7.63035e-10
1.11415e-09
1.82491e-09
1.02502e-09
2.07493e-09
2.85238e-09
5.82631e-10
6.89798e-10
5.28048e-09
6.93579e-10
7.04678e-10
5.44234e-10
1.98744e-09
1.52059e-09
7.15505e-10
2.57043e-09
1.65285e-09
8.17662e-10
1.17946e-09
5.7687e-10
8.4937e-10
7.35792e-10
7.19239e-10
5.29795e-10
3.67282e-10
2.69765e-10
1.20645e-10
2.2327e-10
4.93775e-10
2.97156e-10
9.20254e-11
3.01283e-10
1.28481e-10
7.49051e-10
1.35537e-10
1.08099e-10
3.81127e-10
5.51312e-11
5.51417e-10
8.52009e-11
1.86764e-10
1.60054e-10
1.76927e-10
3.79201e-10
4.06335e-10
5.46191e-10
5.69075e-10
7.68025e-10
4.24331e-10
2.5906e-10
3.67746e-10
5.82541e-10
2.28453e-10
3.438e-10
2.2164e-10
1.89733e-10
4.50692e-10
3.84059e-10
5.40401e-10
1.87326e-10
7.4434e-10
5.98653e-10
3.20739e-10