/*--------------------------------*- C++ -*----------------------------------*\
| =========                 |                                                 |
| \\      /  F ield         | OpenFOAM: The Open Source CFD Toolbox           |
|  \\    /   O peration     | Version:  v1906                                 |
|   \\  /    A nd           | Web:      www.OpenFOAM.com                      |
|    \\/     M anipulation  |                                                 |
\*---------------------------------------------------------------------------*/
FoamFile
{
    version     2.0;
    format      ascii;
    class       scalarField;
    location    "2.83/lagrangian/coalCloud1";
    object      nParticle;
}
// * * * * * * * * * * * * * * * * * * * * * * * * * * * * * * * * * * * * * //


53638
(
67.2585
39.1941
16.0966
122.512
21.0696
26.6179
138.556
19.2123
16.7562
33.497
23.7053
51.0469
6.54929
19.2812
9.15564
121.194
33.2603
18.0962
16.8428
133.15
13.0976
35.0511
8.90099
7.7237
12.8461
11.241
34.1084
9.85501
73.0586
26.0843
73.6719
10.5883
59.2968
63.8224
6.14885
8.96444
8.30342
81.3064
24.4682
29.0465
78.553
17.0736
19.7584
19.5214
41.447
7.497
26.3248
8.09178
42.4531
22.3303
69.9397
23.0121
22.0181
10.0086
11.116
142.165
8.44603
7.8001
46.747
17.5069
27.7496
12.407
24.8224
88.657
18.4834
19.7908
24.3041
40.7895
15.1708
28.402
222.499
76.0573
12.7846
6.77745
4.26521
30.5533
52.3738
24.9424
20.477
52.106
99.7
9.33775
55.9079
10.6745
110.499
42.6995
12.7243
57.6579
21.5667
41.9782
73.5724
14.8561
9.19745
41.8073
83.0959
64.3488
34.6325
176.177
48.4776
99.7685
20.1189
57.5974
11.3436
26.7405
68.8525
35.0268
120.448
13.4797
30.6861
12.5213
34.0909
37.3715
15.2343
18.4068
82.429
43.9467
351.898
46.8142
83.4766
35.6748
28.5004
6.09989
37.9197
207.812
52.2708
36.0001
176.631
53.3211
45.2742
57.5442
45.6846
42.7778
211.595
22.9905
24.063
7.47835
15.3339
54.0802
53.5859
23.0683
272.788
8.37791
22.8502
22.2278
9.13208
22.8092
13.798
25.7474
14.7318
58.1885
21.5712
24.614
11.279
7.74551
147.05
48.4165
75.6777
60.2509
93.3156
27.118
19.5812
86.0615
30.6665
24.9143
8.85621
113.61
17.7522
14.5016
10.8522
9.25436
52.7783
85.7322
11.36
37.2516
87.3692
16.7548
103.269
19.5478
32.7744
25.8251
7.6944
63.0666
213.137
4.22785
46.5792
46.7709
31.2002
88.6482
44.9021
7.17771
44.026
78.7801
211.366
16.6166
24.3165
42.7577
71.815
7.92491
151.634
76.3808
104.798
3.90713
32.3546
14.36
92.3708
15.5936
10.2555
15.5525
104.888
27.0066
30.7036
40.3833
7.04797
22.2278
19.0072
11.5331
33.5214
29.1144
8.78151
63.2095
115.557
31.5026
21.9088
18.6304
14.7013
157.61
30.9411
85.034
9.93584
54.7882
123.73
42.495
100.548
80.5151
35.5874
27.1253
12.6407
11.7462
4.99242
141.005
5.28763
50.0378
16.7666
12.6846
24.5779
37.6556
15.4459
13.8287
8.07071
8.78475
198.786
6.24283
16.2878
90.5705
7.25111
14.4448
24.0962
38.4957
43.278
64.5175
38.8809
5.48337
25.9768
67.8682
56.5862
6.20246
18.548
129.858
6.35521
119.777
10.2982
303.218
64.6599
4.86953
25.3417
50.7394
68.1542
110.838
7.14264
7.03683
38.4205
38.5673
6.30208
15.3643
11.4268
98.6284
12.5974
20.9943
6.97645
31.4621
73.1792
38.7101
16.4316
11.2253
12.9933
17.7775
57.3474
17.3619
11.5787
7.2589
6.9514
2.74526
30.4523
7.737
27.8764
12.1196
6.98282
24.9504
37.8149
7.78874
10.7671
8.23068
32.9114
12.1241
10.6176
21.0583
101.606
114.617
12.4334
45.2842
93.9713
42.5632
7.81584
11.3875
60.9713
4.99816
2.16264
22.4902
10.4554
7.23782
13.6238
24.1118
7.60725
203.913
51.0006
6.44583
25.5536
8.42963
5.91698
2.88197
17.2648
22.1452
6.12761
48.833
5.76812
12.6871
15.193
69.2507
53.1179
50.3293
125.634
41.7223
17.794
5.96787
252.802
58.4128
228.94
8.08399
18.7956
37.6558
13.3125
8.83439
14.1223
85.1706
10.2357
7.22606
5.82771
26.5136
136.927
41.8761
35.91
8.23387
16.3562
25.3073
28.7635
17.6077
10.8947
41.5712
30.001
11.7668
42.6747
15.2165
10.8098
39.1467
33.3878
6.41916
5.48186
7.15382
178.414
4.63317
7.72442
7.32569
29.4105
23.5186
22.0694
14.2981
33.1548
37.0457
6.71978
11.1728
44.4142
66.1556
3.16087
50.1752
13.3632
7.27608
6.1947
7.40988
42.3293
13.3032
9.2884
28.1955
24.8371
11.9111
7.94094
20.5117
36.2336
36.2187
6.96955
15.1979
5.89247
58.5548
18.8601
38.7296
21.9253
6.15873
185.812
79.1819
91.4168
14.0606
7.82981
53.7263
213.005
8.99197
37.9442
15.2872
27.9576
16.8586
19.1364
29.4512
7.76012
26.2165
38.8912
11.7355
71.8333
52.7607
52.2694
18.5784
5.92491
34.3284
44.6484
3.96569
42.1998
11.1976
33.0977
6.28128
6.33906
35.0284
15.7778
18.3904
134.826
128.293
13.3436
25.7619
4.94532
36.1471
88.7841
18.7383
6.75985
12.9013
17.7235
38.0911
18.8989
16.2296
5.66803
15.9804
3.78992
20.0113
24.221
15.419
10.0855
5.80938
12.4494
7.0286
275.751
31.2828
12.7044
24.9731
6.46163
7.19263
23.1325
20.8221
6.24133
7.86035
12.3425
56.4192
29.6902
8.4372
23.0958
68.0547
6.65094
40.7563
40.9909
12.6754
17.5962
7.82623
28.5734
101.315
176.722
125.837
9.80748
6.22433
4.60147
14.5956
37.7923
10.6447
23.0448
6.57904
7.6795
106.468
7.58826
8.369
76.7892
43.7697
9.56032
8.55253
64.4697
16.735
11.8539
8.69119
7.29577
11.2114
6.33439
161.366
48.8367
23.3484
158.41
63.2144
8.35183
13.3971
19.1571
8.46963
120.913
6.20834
14.6562
18.5313
7.8809
205.595
6.04957
6.82233
9.28616
5.94669
68.0478
16.3672
16.0029
11.2179
50.0516
8.65245
46.993
22.2605
15.8345
8.71028
9.47714
64.6175
72.4204
4.91005
25.2532
24.5275
128.364
23.6292
5.8653
19.9063
7.82805
123.051
28.2809
5.78186
76.3577
16.4003
41.2043
8.71442
19.8947
65.8631
18.9281
10.716
8.23184
8.16016
47.341
11.611
8.14428
9.33075
7.23043
6.59741
42.373
9.96779
22.389
7.54273
9.23445
16.4119
9.25678
6.75243
49.6749
7.23386
6.13715
7.86865
10.3016
6.78872
19.4198
37.2594
18.235
8.14426
9.07661
12.0271
9.70826
8.21356
7.09878
7.58495
14.7389
5.50516
15.239
8.52869
13.4914
10.965
7.58137
4.65042
4.67203
75.8958
81.1116
14.4578
56.0492
44.1875
32.0571
65.6339
8.30318
208.546
19.2985
18.2626
305.235
14.9394
7.03402
39.5106
15.734
15.4388
66.1938
21.2717
16.1114
16.7287
18.4822
72.1374
75.1178
5.47355
62.1789
47.3944
17.6004
4.13127
108.871
11.355
14.9983
8.25704
7.87636
96.6133
39.9991
8.69431
122.278
37.8979
7.92779
12.839
64.3099
20.3333
10.8676
34.6677
15.3689
5.30018
6.99936
39.8918
19.8866
33.7432
4.57714
31.9634
5.27844
11.6986
8.22161
7.17615
16.7484
36.1153
4.77115
37.1931
11.5209
25.4782
128.003
3.62285
11.2538
11.9991
7.77476
144.581
28.5855
6.25858
33.226
9.05173
20.5068
5.65296
4.37189
29.7007
6.53274
75.104
91.0861
47.7822
7.32432
101.44
6.64478
74.25
12.1563
17.2067
14.4297
6.47637
25.6729
15.1435
8.23194
28.2911
6.81315
10.699
20.3229
7.267
45.2774
2.29676
20.8509
21.4725
8.21095
7.44625
7.09772
33.0501
4.88891
22.8775
23.5119
84.2683
50.43
6.0367
21.0229
5.54482
14.8282
12.3342
8.89873
7.31621
11.2288
26.5427
11.8413
13.0128
56.1652
255.469
13.7249
7.1412
56.7483
14.5486
10.2543
10.5811
22.9868
15.4212
21.6375
8.92149
9.05563
4.79406
6.73331
7.23676
15.5823
61.6966
7.32354
7.48641
18.2297
9.62331
16.3885
6.49406
154.077
6.73584
86.8634
5.06276
20.9126
4.43446
4.71597
6.79994
9.30501
3.30674
8.97583
39.6131
130.403
225.899
96.3907
10.6436
110.652
19.3937
21.0928
4.06371
35.8163
14.4309
8.79186
9.63525
9.58304
16.7393
4.89169
43.9971
9.25016
81.8718
9.85219
12.1248
16.8994
9.37733
8.04945
13.8315
28.904
21.0028
5.48355
21.7192
43.8684
7.99988
9.44741
19.4167
3.67561
14.1528
6.60932
9.32268
10.7926
9.31578
33.7413
13.3317
4.30718
15.4574
9.3511
14.2703
14.7091
9.78639
15.4301
129.468
9.86346
12.5548
3.2293
7.89703
13.9364
10.2841
8.94212
77.5965
14.7497
6.64038
15.2195
8.61388
133.44
31.5174
11.3746
15.8515
21.0189
17.6768
24.0081
27.1569
179.124
41.9989
10.3089
26.8347
10.624
12.5932
10.2564
13.1987
15.9461
34.3516
9.09228
13.337
26.6577
4.80258
28.0636
17.3166
12.5526
4.83033
72.0347
8.70924
48.8312
20.3521
54.7078
122.506
46.9368
18.6304
11.6456
10.4354
37.6313
21.9741
10.6034
22.8162
62.9364
23.6758
6.74927
19.6068
20.9012
10.8738
9.11427
20.8474
104.974
24.9431
20.1773
47.7403
8.40209
7.1976
9.86938
6.66024
13.4557
139.21
223.382
37.7775
10.9268
80.1576
12.1828
23.1285
65.2378
7.02351
8.15897
10.9489
21.1975
6.97714
10.0046
22.5291
56.8127
11.5605
10.8482
19.1788
4.68279
18.1176
147.328
53.1578
249.072
42.693
12.5329
22.3021
28.5354
22.7699
100.501
14.0794
20.9721
7.13287
15.5892
5.88667
4.74503
9.56569
11.6765
15.2106
171.746
20.3103
57.4305
3.78455
9.39074
23.0322
6.83797
30.7341
38.3846
19.7483
7.43454
7.89384
72.5151
13.0852
218.337
6.76517
5.99916
42.2249
9.82497
27.5646
12.697
8.47707
13.4971
18.6287
58.2496
6.00029
203.843
20.0085
46.115
13.2103
4.16319
26.3637
14.2749
4.86571
9.25235
6.46922
237.836
44.0436
9.11466
5.30922
33.7179
6.83128
8.59187
32.1796
8.50674
20.7953
7.11652
4.72898
7.57553
8.82631
16.9243
7.26966
140.4
7.16368
5.73023
283.316
64.3921
17.8287
22.1382
1.96969
29.5179
60.1671
14.8691
2.97953
38.6195
58.4846
2.88806
22.0431
13.0811
29.0334
3.04975
7.40897
4.65466
13.0745
11.051
3.99002
7.46061
2.71797
40.4941
31.0373
6.85842
15.6675
27.4203
7.0686
5.05544
5.78439
3.30886
5.88768
3.01212
29.6916
21.5729
281.855
2.8206
2.91541
5.50261
8.84927
13.1063
4.83705
5.1778
6.6857
2.7909
18.5497
11.4902
7.78784
10.0843
8.9341
7.09911
9.78952
4.54255
5.27954
7.40507
4.24151
6.47517
92.2293
9.40152
29.4129
3.34291
5.49626
10.5274
10.5828
13.6602
8.98221
3.20909
9.43963
37.4232
14.0979
8.15665
2.58431
8.82032
34.2704
24.3737
189.07
7.01321
9.27684
23.5206
7.22083
34.7127
7.49748
8.92164
8.16873
15.1858
27.4723
3.90096
2.81136
11.247
4.83543
7.55291
20.4562
32.88
12.1447
3.4468
9.32469
13.3448
58.9365
16.8432
4.56811
2.18505
22.3069
2.75953
3.27797
7.3865
72.4171
29.981
69.972
24.9299
1.38782
2.96043
5.43917
9.94761
12.7326
4.92789
7.59339
166.703
3.49371
3.99544
105.277
20.8857
3.45285
7.2534
18.9515
11.2674
21.8201
29.1499
3.88481
229.492
30.6598
5.96179
18.6307
19.3796
16.5013
10.6475
4.61202
12.0792
4.80419
15.1718
11.4664
88.8576
3.03317
3.95543
8.41612
12.1474
7.96072
11.2042
7.49964
15.2547
26.6429
14.6919
28.8324
10.4876
4.56923
25.6223
17.1909
54.4197
5.61633
27.7346
6.32007
4.73522
11.0212
36.2478
2.7804
8.95639
17.6723
4.54788
58.737
10.0328
7.80023
7.54491
7.97604
8.29228
9.9241
3.35148
6.41302
5.84476
3.22346
4.34559
34.5265
6.22549
11.6297
5.7791
11.724
5.67451
6.911
2.37673
8.15568
7.09656
15.7149
48.4693
2.47339
28.4657
5.92058
35.773
27.159
141.65
7.71339
19.986
13.4831
13.0389
21.7181
8.50977
7.60056
18.9358
4.89696
3.80071
4.59494
21.6925
6.12673
35.3311
44.665
189.135
22.0632
5.62249
18.1929
9.42688
34.7406
31.6643
10.0653
15.6082
22.354
67.6308
21.1121
3.61278
2.21857
13.5867
9.44127
31.5768
3.77969
8.09759
13.3712
3.86116
3.86319
9.90585
5.32974
5.62146
5.87251
8.6044
21.5631
12.6274
15.6413
45.9442
4.57459
2.87702
2.67813
6.98598
6.02541
6.44795
11.249
10.814
34.6458
6.02179
15.7358
22.2567
7.19218
12.5777
13.7838
13.3651
16.4871
79.639
21.7149
48.6964
4.83358
5.29115
10.0128
151.191
6.50552
10.6011
3.34636
3.35874
23.1824
4.33408
5.21252
6.36691
5.45469
58.2761
8.0948
20.4525
20.226
25.5331
65.6138
141.495
5.6556
5.11564
3.41621
85.4316
28.1364
4.88337
20.5183
7.36084
7.58488
8.38706
19.717
48.5982
6.74383
8.11785
2.82608
5.97984
31.334
33.3192
36.0458
2.01707
19.4977
5.30461
6.68796
32.1537
9.43735
52.2693
18.0424
29.21
42.329
2.37044
6.6901
4.10911
6.52394
12.0012
17.8241
7.37544
7.34072
5.38701
25.7024
5.6257
31.1429
30.8153
11.5932
32.489
13.3247
37.1019
20.5003
26.8001
58.5603
6.76204
18.06
8.84609
18.3891
4.10248
12.3402
5.91329
7.69792
13.521
5.25033
6.32348
8.73844
122.87
7.00845
21.1573
20.7668
20.6381
18.6284
33.266
34.5112
62.0904
66.3166
1.11341
2.58187
16.3687
10.9546
8.30568
124.821
4.10912
17.97
4.9341
15.0494
45.6094
86.1671
108.266
20.8913
4.11927
7.91951
12.5
6.94197
3.77285
6.67432
5.4261
3.80179
10.2606
6.42521
9.75219
8.80739
9.91934
12.5248
8.42045
11.0791
14.7532
14.374
13.9785
28.832
62.6348
63.1973
20.5351
10.6855
11.5712
5.87109
11.7886
9.89939
11.2895
2.3247
62.9269
33.9318
21.1479
5.0812
8.34147
24.9372
8.73467
17.1911
11.6128
12.0547
18.1387
18.1488
41.4364
41.3433
85.6768
133.87
5.33455
24.9128
22.119
6.94022
5.96374
7.97521
6.08884
7.01514
6.04128
7.05171
35.5331
10.2884
11.3667
13.1147
13.0122
12.9613
41.2589
12.9807
38.6171
69.4982
30.551
37.0476
38.8551
105.259
6.35999
14.991
8.85654
5.57795
11.1307
4.10047
4.29902
4.84045
6.5614
37.7802
9.22193
14.0836
21.2329
20.9638
32.0997
26.9719
30.6137
45.8525
43.3261
79.6203
87.0134
15.3067
11.1212
8.81086
3.72957
4.1347
22.535
24.4697
38.7858
34.4204
3.31705
6.94502
5.51216
9.80221
10.5057
10.3143
11.4766
21.2986
29.4333
84.2094
19.2663
19.0435
30.1978
21.6005
23.5885
7.71979
8.10253
22.6612
29.6024
280.491
13.12
23.0121
101.249
14.0172
13.8267
5.37881
10.2376
99.1448
9.09335
71.4556
229.97
10.4371
11.5767
14.9458
14.757
16.5033
17.3907
110.651
28.438
8.19992
2.09072
4.62732
3.17563
2.1251
25.6363
3.51613
5.11217
9.05909
9.36068
7.42475
31.3611
6.83217
15.3524
104.184
9.44322
120.227
232.081
1.29936
2.65817
7.36481
37.1423
4.15561
3.36466
48.2339
15.2988
5.2251
9.32527
83.0471
5.66727
10.8752
17.0585
7.19415
13.04
13.1539
110.776
13.9094
27.9274
127.417
3.18708
9.43296
7.14027
7.13486
4.18623
7.29994
10.8893
5.07925
6.10373
5.21318
5.53452
9.59197
11.2805
59.9672
10.056
25.3073
14.235
16.6194
14.7422
16.9599
29.8608
173.251
4.58627
7.03771
5.85491
8.8269
2.44004
15.4247
10.2604
5.76272
5.24034
15.8805
36.713
6.43225
11.1183
8.45512
10.1048
7.98938
14.131
13.8325
18.1819
56.2673
25.8236
109.857
84.4657
3.54335
7.46465
9.45494
2.55866
6.31947
3.01552
1.87476
1.93739
15.3378
2.28614
4.91313
4.46668
4.80431
15.0213
14.2954
12.3759
15.7495
49.4185
20.2892
238.822
72.7855
443.419
59.8064
9.75429
44.5157
4.40455
73.947
3.1337
27.4277
7.24969
10.2215
9.04844
5.95173
6.1794
35.0512
10.0396
19.3155
11.8227
17.3173
21.2072
34.7294
41.5708
33.6096
69.9313
10.8556
3.75097
15.5486
3.59118
2.61698
10.3563
11.9825
65.5721
17.2263
10.1263
13.2832
62.4607
7.58201
10.0456
16.8829
10.6403
88.9975
14.5525
16.4757
54.0395
19.9535
46.4986
88.8577
97.5497
4.13976
5.76875
4.86291
12.2374
27.3795
3.17682
9.32249
10.5837
11.237
16.316
23.6544
21.7972
30.212
32.4819
44.5382
45.0045
38.9034
93.135
86.7593
14.3996
8.24923
2.31406
8.29509
5.6537
47.0956
3.62275
6.52961
12.9558
4.75424
7.17772
9.71061
10.5815
11.0021
19.3273
16.0201
40.6733
43.5423
45.8244
49.0241
56.344
4.589
5.03443
10.6132
6.36557
7.17818
2.25283
25.2958
2.81728
2.99069
9.69436
3.21175
5.20528
4.2024
22.3376
17.7572
45.931
106.188
6.12338
6.15153
9.89634
19.4299
7.5219
17.8537
18.2825
7.63874
4.30416
10.3198
67.0065
9.01428
12.7359
14.7098
50.9732
25.4421
57.9568
200.59
91.2796
11.8938
3.07282
3.69215
4.34277
7.31929
13.8271
23.3003
2.72047
7.02737
2.5848
3.41678
120.985
3.93282
63.342
4.99098
7.55217
6.12527
6.22843
6.8478
24.9316
67.775
42.8789
45.6629
10.1927
8.24298
3.14941
4.03524
4.12842
6.16174
4.15611
7.39543
3.20607
5.47656
130.141
4.71341
6.28319
12.3327
6.2848
6.08947
37.5909
7.57087
8.69548
24.8135
12.0875
15.8052
17.4907
25.3512
29.9859
74.6549
61.7851
62.4845
17.9251
4.40966
6.72365
21.1517
3.30455
3.0869
20.4086
24.1588
4.13021
5.74667
9.51641
7.59655
11.5279
19.9332
16.5104
27.2938
8.89727
4.84348
5.14344
4.1025
6.89333
3.53734
21.4235
43.1554
4.08366
89.4052
4.01572
12.9865
15.6711
6.15727
35.4199
12.7788
5.26261
34.1335
8.51868
13.0452
33.8292
21.8997
17.6823
27.1451
31.6824
39.8339
31.1998
19.9521
10.4022
2.93893
12.9547
13.6426
40.6425
5.54542
16.6681
22.5006
40.6475
8.18824
15.4512
20.6742
108.589
8.83026
9.31737
20.4013
41.9623
38.2841
48.3027
130.841
260.055
2.47732
10.8356
11.0851
22.5079
4.37682
2.73144
18.6543
6.6041
5.9533
13.1529
10.6078
94.8385
13.3841
13.7055
17.873
18.0921
17.5192
19.2038
67.7426
27.9362
327.071
1.69372
4.22942
4.78286
3.58727
28.7426
6.19444
5.13722
4.21939
6.52053
4.45688
19.8076
17.5918
9.1438
9.82287
10.3294
20.1819
24.9222
20.5361
35.1745
72.5336
44.9228
16.5185
9.14076
6.15619
10.1212
180.708
9.00377
10.2942
10.017
11.493
14.4684
20.4381
16.8685
21.6476
19.8042
21.9678
24.981
35.2251
36.7575
27.7474
4.33832
9.96168
3.92106
3.92915
21.7737
8.36784
20.7726
50.4057
3.88967
11.8958
28.5755
10.4198
24.3809
101.724
8.74752
10.219
16.4341
25.8481
30.7656
24.3641
27.5339
153.572
40.7999
60.4879
104.254
134.863
4.35859
6.21415
12.9479
4.1356
8.3798
76.2824
41.1682
4.50881
8.56439
13.4765
3.79731
5.0844
6.12928
11.8908
7.99292
9.40953
11.4302
13.4448
7.94776
8.59138
11.8337
20.0252
51.0838
31.6142
44.467
17.1281
9.15161
25.6027
38.9181
1.76525
40.5154
9.6982
6.37332
7.86823
4.73435
4.88607
5.98077
59.3942
6.78693
6.9475
7.54475
8.11808
20.9006
14.3629
24.6768
94.4596
16.5293
11.6257
9.09972
3.43668
18.4879
3.73936
5.73605
16.3481
26.6423
10.6882
3.99266
8.38521
18.604
12.6246
11.5448
18.3612
18.9769
130.49
29.2074
33.5954
40.1748
15.8083
3.46918
3.40429
5.84307
2.30522
13.7674
69.4354
53.6821
4.9605
6.55705
10.0443
19.938
7.51575
14.1308
14.0751
13.7644
17.2554
64.5938
97.4826
8.02548
17.3217
19.7532
2.56928
6.07421
24.6185
11.9265
9.72037
2.95935
3.12339
19.6859
7.64005
10.7053
41.3424
6.42067
8.32118
11.3164
15.4455
17.8505
28.58
40.6529
57.7438
9.46799
8.51455
26.9559
62.8001
7.32969
8.17304
2.69444
4.33498
6.76235
13.8144
14.5664
8.15297
20.4511
8.81337
12.2538
12.2495
20.9989
23.3963
15.3224
38.1856
37.247
61.3157
146.068
6.12765
14.1095
3.64079
5.22961
45.5955
6.82936
23.6085
7.89143
12.9956
36.7365
8.48123
9.0702
19.7205
9.40585
58.7906
11.0932
18.1252
36.1039
98.4806
54.6118
73.292
88.1351
116.09
6.88315
13.3754
20.224
29.9784
5.08703
23.74
13.8323
3.25771
3.60716
4.79953
143.914
8.06504
8.6154
33.2432
9.19751
10.6563
11.2001
15.0468
20.6455
16.4911
38.8438
54.7232
66.2732
125.645
7.87799
2.7424
19.1175
14.1872
20.2
9.88492
3.64731
2.99665
9.7429
4.7246
4.56071
6.24486
12.4726
8.17496
10.2133
11.9785
20.9894
12.284
30.628
26.9823
33.8847
48.2408
2.43543
5.15277
4.20056
5.5995
2.16859
2.72396
10.2566
7.60076
13.7371
10.8546
10.3897
29.4669
25.5218
33.8611
73.6344
139.411
64.1865
8.95387
12.2728
11.4078
11.2676
2.50415
17.2697
3.58835
15.1534
5.13873
5.80435
8.33655
10.6751
14.0115
20.8045
21.8044
17.5797
137.261
23.2436
25.7983
24.2897
62.226
63.0934
68.2346
374.669
19.0029
3.21669
4.51349
8.04749
4.72847
6.11415
6.80297
6.30491
10.5048
7.25684
7.9626
9.58571
18.3915
20.2868
15.6139
23.3199
28.8992
72.0298
3.45129
3.86698
7.61252
21.7115
22.5587
7.63351
4.67004
38.3139
4.9842
7.5689
94.4166
16.199
7.15678
13.8138
18.513
9.92508
11.2137
12.6752
36.7258
28.3935
31.5024
83.642
6.37005
11.5101
24.599
13.7927
32.7141
15.9168
5.75379
12.0959
10.8095
8.80273
3.02524
3.73597
5.32527
11.0992
44.7645
6.15476
8.34562
22.679
8.72678
10.7288
12.3583
15.5499
14.2487
22.3887
29.4885
61.4941
41.9857
51.6765
13.266
5.17189
29.1459
23.5526
7.18123
9.61799
20.1396
5.23477
6.2122
24.534
16.9536
13.3404
13.2403
27.8635
13.2654
22.3865
74.9305
27.8419
91.0816
181.112
9.9377
17.9742
10.2059
1.93868
62.3724
6.03691
5.20252
3.80763
3.15604
4.14228
7.86765
6.26595
6.67724
6.87633
10.0129
19.8269
10.1376
12.624
15.5024
47.2685
12.7398
10.4843
10.4859
13.2666
3.5822
35.4734
252.9
4.27012
6.19024
7.87033
12.8239
5.95981
6.46239
11.1288
11.732
13.884
17.448
38.5479
37.7263
115.641
14.3854
4.88136
6.72531
6.98712
5.06324
8.52344
8.91479
2.19515
8.82226
4.78903
6.37142
8.06885
54.3967
7.90964
11.7063
21.0739
25.907
39.1039
21.5828
9.4532
4.02982
8.27254
11.6696
28.0023
8.32201
5.2636
4.34852
5.59055
22.811
22.8833
4.58941
4.96784
9.40403
21.7569
14.644
27.3672
19.3412
18.3506
21.909
74.9065
39.6468
95.6238
155.105
10.9269
6.62716
4.66861
15.2626
6.75131
39.5193
45.072
1.64714
12.5717
18.0321
34.4712
4.80369
6.73821
47.4329
19.2881
79.7926
5.40344
8.35496
23.9083
10.6599
15.0676
21.9357
90.815
115.016
3.12868
10.9139
10.0642
35.5887
6.39249
23.0121
6.40538
14.9078
19.5695
23.9023
34.8443
5.61092
45.2016
9.68139
11.5321
8.07145
51.0416
16.9435
19.546
65.1192
77.5184
26.6255
15.165
15.0902
3.41317
18.7129
12.8157
7.8243
13.2668
6.5538
4.76749
23.3401
19.714
2.57527
19.6066
20.2626
26.2362
6.84231
9.39021
19.956
5.29044
8.6388
17.4628
12.1061
24.7519
16.8108
19.4058
19.8524
25.6678
38.8764
52.9298
118.353
63.9524
27.5864
50.293
161.19
45.516
106.269
18.1991
100.405
126.306
39.3141
247.657
27.1599
160.252
72.7453
84.8853
76.79
39.746
36.8751
24.9391
26.1444
19.258
32.0857
52.8896
37.2899
23.3829
59.7655
43.5448
61.6028
71.9624
30.209
39.2433
25.1706
72.8869
18.2913
22.7536
42.3592
78.5333
72.688
52.5188
27.3482
29.3069
32.2704
34.4676
37.6255
67.52
53.794
51.9869
59.0215
39.0189
56.7349
58.0767
73.2325
47.86
51.4779
47.4723
19.483
33.2703
15.8815
33.2692
30.9433
39.3104
318.497
3.4765
83.8897
46.0537
29.4962
69.6826
43.3046
15.6757
52.0614
56.371
41.1058
56.0755
35.2927
63.7799
3.96734
45.1862
28.9373
29.9837
4.76849
42.6279
42.3755
30.8728
22.0238
30.1401
20.0594
53.7142
63.4749
33.5461
16.1191
29.5888
3.8787
33.423
31.1778
50.2818
29.4716
31.1687
17.556
4.75147
21.9873
33.2785
22.8891
10.6634
10.9352
13.7835
8.2779
34.2704
44.2175
27.8068
22.9194
16.2316
74.1777
18.5693
4.98329
21.6093
28.9692
22.2939
15.5762
25.845
24.9481
24.6246
26.3753
24.2935
35.2137
17.4695
44.0681
23.5577
16.9262
87.1714
17.6506
37.1692
9.47316
91.0494
71.1635
40.1496
36.0704
18.8684
15.2221
38.0996
7.01982
38.3281
11.9871
6.85925
6.89598
36.4259
15.6721
35.7863
19.0444
20.8484
23.0244
79.6967
8.36925
12.2384
17.5043
15.4382
45.4223
50.3518
22.5086
19.3397
57.1639
15.3636
42.2886
15.6896
91.6706
7.21368
23.8875
48.4754
13.2556
7.8979
17.7543
29.9216
35.0833
20.4184
5.06605
82.1125
87.2396
14.3692
12.1687
17.871
18.13
18.326
37.6187
29.3303
5.119
9.56918
81.0961
14.3177
25.4583
12.5601
42.9618
15.8954
40.0645
29.9905
11.5341
29.444
38.1821
97.6875
21.5328
2.99884
21.6867
62.3102
15.9412
16.3049
18.6675
15.9624
43.4514
16.3893
30.0521
14.1918
41.7189
13.0466
11.3562
12.8615
8.57989
75.4558
191.594
9.6752
13.1228
53.4492
60.6762
64.9616
15.8791
111.637
18.3997
9.23301
20.3529
11.4756
4.78426
12.4724
27.0951
4.78812
50.1809
25.8248
57.9323
8.46796
112.223
10.112
25.4028
19.0165
6.2538
73.9447
185.67
10.1531
7.8858
8.96403
18.1132
2.63407
7.11106
72.7473
38.6734
83.7395
11.1437
35.7354
114.185
8.6921
13.7968
39.2429
14.5459
41.6609
77.3373
40.1004
9.53403
6.37476
42.9127
9.96811
46.4112
74.8142
15.6817
7.01604
15.7514
50.0628
11.6699
3.86262
14.5965
13.8829
12.1706
21.144
23.7259
4.98354
7.77458
64.2911
13.3321
90.1517
5.48212
6.16132
10.3809
26.4408
19.394
4.579
32.0883
7.65065
36.289
1.95728
4.27903
9.78534
4.45921
62.6974
5.24269
4.71172
6.1091
14.5937
3.50973
142.31
17.415
2.41181
2.36976
6.81284
10.6935
15.4746
12.8056
19.5531
3.17825
152.489
3.68229
11.4444
9.45344
17.0148
9.70301
93.2754
6.7145
9.4319
13.7544
22.1981
30.4405
33.069
40.5639
7.23387
12.1465
31.2506
10.3464
10.1854
12.0929
9.29467
7.3994
15.6583
12.4933
3.09023
25.1408
25.2127
20.0533
39.1587
5.19699
4.33834
2.0941
104.515
10.2884
22.9205
3.8529
17.5392
49.635
12.3275
26.8969
6.33267
3.95542
8.11611
129.034
19.4394
2.27524
7.2083
68.374
4.08839
3.69698
9.78782
12.5691
74.5972
9.08984
4.13079
2.75583
10.4597
8.66459
5.45584
11.5214
38.3945
3.19543
17.9179
33.7842
3.62212
12.8228
17.0237
2.66713
4.88905
8.93008
4.88518
3.60823
2.32012
4.40439
11.9237
51.6262
129.032
4.27364
7.69303
3.04528
85.4978
5.13875
7.87457
10.3616
6.38443
10.7601
9.76036
36.961
61.8604
3.2899
9.60896
4.91393
17.2299
20.3693
14.3634
19.3876
7.58019
37.3327
32.3122
11.4928
6.98494
6.36232
17.1635
1.83739
10.101
36.4854
15.247
9.42132
8.73047
9.44869
3.42077
36.0944
28.4002
5.38532
17.9472
9.59152
9.27385
5.20909
13.2066
13.15
6.76451
7.39204
11.489
18.8862
12.6494
7.3539
22.8231
26.8034
13.1752
162.17
9.10478
219.199
33.2149
10.9979
27.5761
20.3786
5.66758
18.5041
13.017
4.31594
11.5364
2.72419
11.179
25.8726
22.3088
16.2831
4.07442
13.2191
30.1761
65.7431
40.469
14.9164
27.2171
4.56493
9.8176
7.89639
13.7399
30.9299
149.918
34.2146
9.29361
10.4576
20.6109
2.82038
7.86463
13.7925
104.544
30.9197
3.73245
9.21393
6.74857
8.84123
76.9009
11.5175
48.8012
9.6052
3.95929
16.0751
43.8269
13.0526
3.3849
7.96563
110.207
4.20053
68.0307
7.41564
16.4725
9.26204
12.0625
27.1756
8.39637
17.3396
33.2294
14.694
3.15673
7.31189
20.8653
4.71801
21.974
16.3436
47.7873
3.55108
25.5312
9.47855
48.957
12.2116
12.6606
14.5266
16.1821
10.7638
8.90285
44.8231
5.47447
13.2193
12.5707
7.71936
5.06603
6.37616
12.1681
37.299
34.3223
10.0685
17.2239
28.74
3.16941
5.66323
198.746
11.0215
10.586
13.0498
21.4537
145.258
6.35448
8.00872
7.40991
10.9371
20.1625
37.9551
68.3729
23.3686
13.3538
2.74741
3.75208
14.9841
8.11596
5.06001
35.6188
60.4557
32.794
20.5769
6.00065
4.08631
196.459
12.7679
7.62262
11.7753
94.7106
4.92283
12.6419
15.7354
27.8819
30.8824
9.4592
13.0918
1.75922
282.241
3.77363
2.84885
4.84656
9.69267
4.35969
9.97165
16.9813
7.60624
15.7386
11.1618
15.8361
19.1569
23.6515
35.7239
3.35712
3.43973
18.3732
56.6492
55.5773
2.93051
19.4631
25.428
3.46525
6.20833
5.45846
8.10676
8.43071
7.92875
10.5128
13.6796
12.1903
16.5647
14.9215
46.4169
40.9399
3.01026
5.25408
5.48073
11.9399
5.28058
7.18479
11.3898
42.5156
7.36712
8.07647
5.83585
9.16143
14.9898
21.9145
33.1562
9.42507
15.2178
10.8322
11.7626
26.5006
39.2509
66.1772
9.79411
18.5094
14.2225
11.111
18.6905
184.994
5.76028
12.4084
8.07004
12.4866
3.66517
4.0494
34.1249
8.52971
4.82444
7.32362
5.70022
11.0648
10.1211
13.1402
35.9657
30.6833
13.2579
15.136
27.3751
48.6275
91.1756
143.457
6.9239
10.7987
11.4649
11.11
9.81551
4.97031
7.52778
2.36692
157.845
5.62793
40.4652
5.09386
4.23933
5.76272
5.4178
123.925
9.41926
10.7913
17.5159
11.1654
44.9386
19.0036
49.4386
140.652
7.3387
11.0382
10.873
24.3326
3.37927
3.33812
2.48152
5.14311
3.18708
5.44151
8.0518
15.2417
6.65912
5.43418
6.90177
10.9055
15.4361
16.7723
6.59846
10.5553
14.4052
20.7482
26.6882
44.6809
15.8862
44.3297
27.5351
32.1517
54.8019
90.4354
44.9702
6.71218
48.5173
8.13919
3.94171
5.66884
6.47706
4.80232
6.79005
13.4376
44.2771
12.8445
17.7454
14.0542
13.9353
20.5661
50.427
21.6967
26.1872
23.8972
32.5438
281.715
6.06704
3.41259
5.79902
25.2915
33.9203
8.50015
9.17987
4.93565
20.1476
2.77583
19.2235
13.7928
29.1726
11.5998
6.01943
8.55108
9.30413
7.72146
3.98255
16.8629
23.329
7.44076
5.35537
5.76038
4.91921
14.7353
7.30463
6.06246
19.0737
7.85445
11.429
17.7232
23.3812
12.3541
15.1496
57.9626
27.1853
10.3461
8.80284
15.1527
5.68351
13.3665
9.45495
10.4699
4.43723
3.58984
3.0248
7.09585
16.5562
25.5187
59.7037
20.4664
6.77705
13.9888
16.1754
27.0516
32.4246
135.654
33.7733
67.4999
268.992
18.5912
4.76534
6.51264
32.671
36.8511
20.6824
29.1036
3.07601
21.2958
4.06496
4.19486
7.26246
8.73326
37.1507
12.1584
23.4608
85.5132
36.1225
21.8598
62.0328
101.912
11.6394
20.5303
33.1336
14.3789
3.0166
4.56715
10.5525
21.8266
6.42634
6.32073
9.45113
16.1826
13.182
24.141
41.2701
10.7473
12.0311
4.87149
7.59227
11.7638
53.8253
7.61863
9.12896
4.3504
58.786
5.5478
7.64633
6.39192
14.2439
9.03398
31.2602
6.67615
12.1084
13.3213
15.8919
15.5001
17.4753
23.3201
36.2182
89.8662
12.1161
5.33342
64.6575
59.6957
65.0097
7.24463
7.60836
70.2995
8.80928
6.355
14.0311
5.68884
6.27246
8.98713
15.4164
18.4562
87.8133
35.5801
2.09969
4.22565
19.5458
29.1559
4.37733
34.1152
22.6719
23.2291
29.0808
7.00309
61.0843
71.8845
14.2301
12.5545
20.4155
19.9608
5.75789
10.0247
10.0343
32.0299
10.6283
23.6783
51.6742
32.2273
6.54228
10.9824
25.774
4.92131
17.6681
5.66645
40.3638
12.1804
4.03276
7.32403
58.2355
7.11361
30.7024
26.4278
16.4865
24.0331
29.1589
25.4799
38.7217
64.9016
18.9905
18.2295
11.1238
36.673
16.4434
2.86999
17.9228
9.34262
3.64936
35.9725
6.57472
34.3185
4.57704
4.30158
7.53642
8.23738
7.24293
29.21
11.0255
18.3903
16.1037
28.9474
19.7424
92.5952
6.68811
3.21742
43.2519
6.36897
17.1951
11.6644
4.4369
7.44259
14.5444
4.68618
9.91921
24.1293
7.2696
12.2493
10.6563
33.1793
15.797
35.5897
12.6444
30.8892
34.0273
465.854
10.3093
40.599
2.17074
3.71185
7.50252
27.1153
10.713
37.8623
9.4596
48.556
3.85246
30.3553
9.59466
7.60033
6.41262
10.6824
14.1316
28.9018
103.444
68.8113
156.016
4.28297
13.0776
11.1854
27.2236
20.2083
6.59674
3.40134
3.62362
9.4108
6.86619
7.17808
16.2707
14.935
8.76016
8.74761
11.8647
14.1722
24.5238
34.0175
83.4852
8.05051
3.12795
4.6428
58.8073
13.2738
8.78399
19.6708
2.52617
7.99693
15.2139
4.52402
18.1313
43.5915
4.2282
47.3345
73.203
19.4488
9.69747
65.4706
38.2757
27.4162
25.013
4.9618
8.70056
11.9203
2.59008
21.5205
15.814
24.6455
4.33683
3.74258
2.94113
7.3902
77.1816
4.93062
9.6365
8.23744
11.2983
82.8407
122.004
8.51265
57.654
17.083
5.69957
36.258
6.57245
4.34523
306.197
13.2431
13.8526
23.0746
6.65719
8.98667
11.0472
22.951
8.63627
7.6854
10.3097
13.0773
19.1024
83.0551
16.558
2.72938
3.74446
12.7282
1.05977
22.0231
52.5711
36.2431
3.08527
4.87194
2.73807
13.0065
14.9621
10.6401
17.355
32.4783
9.90006
13.8482
16.4726
23.2637
15.8293
25.4412
45.8544
49.6302
11.7866
8.77079
8.62023
7.08927
25.4951
2.43753
83.9073
8.39762
2.59883
3.80887
6.85537
17.1879
12.572
25.7783
85.7308
21.1393
38.0094
100.78
21.3572
7.20564
7.53516
23.7727
21.5808
7.98991
5.30909
3.04615
3.28903
3.92677
3.82399
6.22517
6.23395
4.9041
5.455
5.58749
10.8606
109.223
11.8324
19.8307
12.1409
24.0315
22.5196
36.2744
17.0401
18.8605
25.3274
32.0246
34.5701
67.1115
121.881
184.005
67.2627
14.5483
8.64208
19.0705
16.7009
15.4693
4.31285
11.5505
23.3954
12.6661
24.3901
5.92814
3.86057
4.01074
9.5454
18.3374
9.36767
9.31231
12.8883
15.4678
24.6807
11.4078
19.9406
40.472
30.854
24.8964
3.31463
4.72841
2.547
6.56894
4.38546
7.59631
41.2815
52.3856
10.7777
9.93158
120.078
24.423
23.6277
29.4438
76.0617
24.1138
6.33435
11.283
21.2018
89.9917
65.7955
13.9181
12.1832
31.9873
2.95331
4.21589
6.83805
11.9574
17.6965
15.0702
9.29823
6.9513
7.99451
32.933
48.6703
12.8366
15.7482
17.8548
32.7644
16.1263
45.1872
68.7993
44.5113
104.127
9.09249
2.44864
53.5134
32.8136
57.1184
33.5552
13.7015
12.4082
6.2907
11.7368
20.1933
26.9529
29.363
31.0158
42.731
326.085
2.71359
13.9564
8.28749
75.1777
82.2574
13.2131
29.9769
6.00514
3.71131
3.57255
6.57359
44.18
45.1232
14.3067
20.5223
13.9216
14.9133
20.1796
21.5073
77.3236
19.6039
70.451
26.2613
35.108
143.791
29.5206
8.69507
20.2053
3.56656
14.8444
3.99638
3.89369
7.38288
9.34868
11.2142
11.4155
23.6449
56.8778
19.8452
38.6153
58.8077
42.4695
26.172
61.8216
4.45092
4.53162
6.79027
4.03785
4.83569
6.87808
1.35048