/*--------------------------------*- C++ -*----------------------------------*\
| =========                 |                                                 |
| \\      /  F ield         | OpenFOAM: The Open Source CFD Toolbox           |
|  \\    /   O peration     | Version:  v1906                                 |
|   \\  /    A nd           | Web:      www.OpenFOAM.com                      |
|    \\/     M anipulation  |                                                 |
\*---------------------------------------------------------------------------*/
FoamFile
{
    version     2.0;
    format      ascii;
    class       labelField;
    location    "2.83/lagrangian/coalCloud1";
    object      origId;
}
// * * * * * * * * * * * * * * * * * * * * * * * * * * * * * * * * * * * * * //


53638
(
43100
42666
42157
43095
42354
42286
43880
42121
42065
42565
42245
43125
41356
42523
42860
44416
42559
42233
42199
45041
41822
42974
42761
41299
42032
41645
42668
41533
43416
42460
44116
41609
43738
43820
42713
41512
41750
44095
42120
42785
43835
41867
42221
41989
43008
43027
42187
42317
42519
41934
43122
42478
42545
41395
42060
43419
42490
42414
43028
42806
42882
42924
42961
43430
41733
42926
43665
44898
42937
44697
45006
45266
43608
43638
47903
45943
43884
48732
43821
46751
44747
44245
44457
48251
44869
48574
44042
42805
45456
49048
46804
48333
48311
49542
49160
49889
48724
50260
49788
47814
47885
43145
48568
49110
49863
49102
49875
44046
48825
48515
49404
49465
48204
47363
50183
49412
47761
49511
46922
49368
45396
47397
49391
50571
49699
48872
50455
49956
49649
49846
49232
49380
44963
48834
45270
46824
48256
47843
47635
42215
46096
47948
49032
48453
47880
42103
48567
42947
41585
49525
44674
44068
47315
48062
46663
49312
49934
49257
43773
48993
43562
49780
48890
42903
48348
50024
41626
45565
43957
47994
42195
49941
41233
45495
43932
43072
46709
48977
42399
47533
44518
50106
50222
47507
49363
43735
49264
43435
49308
43363
45362
50201
46566
42010
48617
45382
49540
45493
43289
48632
48276
47417
47951
48651
44033
48284
48512
45908
46302
45329
47461
48727
45089
44652
47308
48411
48038
49079
45601
45693
50076
45887
48302
44557
47332
43367
48822
50293
48115
49674
48795
45457
43368
49789
46187
48483
43223
45465
46112
43276
48103
45707
48787
44054
48420
48723
44573
48359
48341
42690
43493
47430
48538
50575
44904
47064
46200
49325
44063
46784
44873
43479
45931
43212
45977
44649
48841
49035
44406
46746
47292
44110
43128
47170
47681
46445
49753
47766
47052
45922
48264
45249
45177
43462
44812
49278
48389
47226
45028
45084
50926
41929
46803
41928
41341
48259
49612
47254
48382
45274
47574
41480
45055
41758
47522
45176
43640
42075
50783
42580
47795
47658
42533
46785
48110
47566
46386
50991
41594
46864
42028
49382
45471
48167
49355
42416
45020
46808
44118
42612
47995
46773
41168
48739
49930
44467
42127
43981
45525
42768
44058
42939
44545
50993
46179
41244
44360
48176
49416
48920
48152
48286
48071
44979
50237
46220
42784
47682
47712
45370
46107
43556
41991
46291
42997
47551
43404
51738
49420
49361
50581
45814
45014
43376
45612
44807
44484
45539
41511
50061
44139
72
44634
42826
43795
45145
43831
47472
45948
46816
45262
42289
46889
47176
49000
47424
48450
46265
43739
48104
49104
46092
43202
41963
42889
44867
45731
46903
42994
44178
46753
45073
46362
47276
46937
47876
46081
48266
47803
44712
43707
48209
48424
42299
49562
47467
48856
48613
48067
47242
46630
48313
48005
43865
47806
46635
49221
41120
48086
45690
47942
51797
43747
46970
43759
50738
48626
42660
44821
45052
46058
47483
45281
47088
50865
46361
46353
52439
42287
46242
43136
48773
48292
49719
45787
46199
51868
49814
48003
42300
46620
45418
49636
45243
46146
46909
45222
48299
48736
43040
45175
45583
47790
47888
50307
45848
42024
48752
46059
45323
49024
50754
47287
47393
42798
47115
51000
42346
41805
47935
47154
48670
49001
41143
45365
47697
45642
42677
47543
42683
41086
47820
41937
41108
48198
48429
46610
47275
47934
51213
43869
40901
48514
49705
46732
47482
51331
46115
48043
45655
44625
42048
43966
51406
49268
47284
52023
42147
43516
47178
41569
47873
52180
40986
45870
45815
47926
48213
47718
47218
47087
44732
51569
48340
46340
45711
48362
47800
47519
45230
44934
45336
45251
52619
48380
46207
47156
50044
50899
46021
42262
46731
43360
48044
49418
43997
47705
48437
49300
45628
40541
47233
48142
43786
46462
46507
42041
43710
46650
45437
44586
46008
48778
46866
50281
43856
43654
48126
46960
43033
48083
43534
43537
44488
40915
40880
48683
49993
49466
45998
47847
45394
44048
46272
44216
47245
48275
41813
48053
45010
47506
41096
43859
43567
41049
51891
48258
46956
48361
50039
48824
45938
45566
46564
48589
49563
42625
46681
46671
48418
44130
49084
47601
45744
48291
47569
49793
46418
47454
41016
48260
47214
44991
43647
48521
45078
46141
47435
43992
49772
48776
46094
48528
49991
46975
48718
48319
41305
47493
45684
46263
40858
46525
46186
44432
48398
46342
45724
47001
41212
44471
48113
46246
51555
44919
42098
45374
48716
49107
47674
47029
49025
43525
52213
47570
43779
49983
44264
45217
47212
42270
50299
45741
50272
46533
48008
46628
47671
45308
51215
48346
47611
46442
47670
49411
48189
47366
49710
48092
44951
46851
46810
49335
41001
48815
49666
42853
42279
47408
45668
46083
48208
41878
48149
49911
45935
46229
43197
42802
48254
44310
43071
46343
47905
46347
43931
47983
48934
41012
44966
44412
47782
47211
41398
40841
47078
49241
48255
44835
45896
44535
43723
47221
46273
47101
47167
48039
47985
42679
47643
51036
44762
48702
48019
45240
45821
45958
48195
47475
46742
44916
45570
50578
43400
48576
48373
49184
41459
48445
47463
43842
46459
42899
44571
47198
45652
45580
46023
45800
43081
41141
47676
46167
43477
43885
44665
48666
45706
42021
47238
46079
47172
47089
46752
41291
46627
42879
44936
45426
43431
48845
47851
41711
45403
46163
45983
47554
46969
45818
46584
43918
46189
43215
43186
46180
45701
47764
49353
45890
42551
41122
43591
43921
48611
44676
45703
48343
48535
48170
42430
49538
48836
45324
48543
48078
46095
44172
44379
46350
48582
43768
46827
48399
42817
48422
46835
45868
43973
48967
46529
42543
47144
47616
51258
49953
41583
46313
45647
46714
46685
46152
48580
49009
48714
45110
48253
48235
43595
45410
48376
49163
48555
48407
48057
44067
47864
43353
46825
46344
42828
46918
45172
44255
46926
44974
46231
48947
48145
43780
47701
48369
42567
45971
41541
47442
46799
44465
48331
42741
44175
47517
48935
49684
49246
46867
48169
47794
45341
50670
46684
48304
42957
44027
42409
41858
45817
46237
44203
50020
48325
42250
44954
44332
45994
46619
48648
48085
48314
44752
44395
42577
48737
51162
47707
48041
49756
45923
48526
45494
44010
46725
48160
46902
42497
43080
48082
48916
47099
46113
48586
44015
47609
46159
46487
52195
50369
44369
42608
41405
47422
46209
50607
46396
45571
46821
46643
47708
47909
45674
46637
46678
47220
43946
51788
49959
44690
45133
47286
45490
46843
48124
559220
46904
47798
43741
48575
43908
49851
559664
48006
47272
46612
45841
560090
43875
559502
48976
48757
560118
560341
46972
559884
560284
560417
559781
559775
560269
560518
41554
48279
559229
560058
560257
560260
560669
559918
560283
560599
45667
49495
44599
560782
560819
560853
560171
560845
560412
560562
560299
560783
560993
561601
46223
51113
560197
560920
561012
561183
561296
47830
560528
560614
561408
561354
45397
559916
560940
561259
561364
561564
44084
44939
44730
40741
560879
560929
560968
561301
561424
561657
47726
46968
560427
560602
560746
560946
561051
561333
561083
561329
561236
561455
561441
560016
560702
561043
561034
561120
561293
561754
561731
48763
50768
560182
560836
561049
561077
561196
561124
561171
561727
561241
561308
561980
47375
559671
560858
561170
561159
561340
561418
561182
561846
561829
42535
48530
47412
561044
561154
561135
561547
561400
561714
561743
562194
560023
560304
560361
560678
560687
560750
560767
561095
561298
561376
561612
561543
561449
561809
561788
562015
560100
560997
561273
561201
561536
561641
561243
561567
561726
561440
561906
561675
561660
561677
561703
561737
44931
560401
561029
561368
561238
561321
561670
561460
561673
561548
561844
560275
560378
560728
561080
561186
561270
561644
561206
561784
561518
561854
561857
562069
561757
561968
561931
561940
47645
560590
560676
560857
561101
561128
561207
561603
561482
561786
561806
562030
561853
561636
561943
561843
562077
562108
561908
561991
562066
562273
48421
559831
560798
561039
561086
561116
561234
561428
561541
561330
561474
561734
561629
561647
561689
561833
562008
561947
562081
562329
44868
560527
560655
561319
561395
561461
561599
561623
562045
561704
561935
561992
561790
561985
562043
562033
562070
562485
561271
561359
561213
561264
561337
561624
561470
561570
561305
561462
561893
561577
561652
561692
561687
562131
561838
562138
562199
562287
562501
562639
45621
560877
561212
561699
561822
561563
561966
561814
561851
561883
562237
562418
48150
40150
560450
560865
561299
561324
561650
561194
561654
561620
561706
562060
561932
562340
562208
562385
562441
560985
561473
561444
561568
561744
561781
561702
561711
561712
562035
561748
562104
562134
561960
562201
562133
562366
562277
562343
562537
43011
48406
561203
561772
561526
561871
561765
561832
561956
561778
561817
561925
562346
561873
562233
562250
562265
562258
562455
562469
562599
562645
560733
560954
561373
561598
561686
562141
561653
562023
561760
562213
562568
562656
562751
47473
560608
560955
561287
561429
561404
561608
561627
561586
561842
561876
561978
561979
562013
562034
561994
562038
562116
562167
562212
562450
562657
562664
47973
48290
560754
560868
560803
561387
561546
561310
561983
561952
562087
561791
561950
562185
562029
562171
562158
562165
562300
562322
562479
562525
562666
52863
560808
561244
561459
561458
561485
561597
561870
561937
561920
561948
562276
562099
562128
562155
562204
562206
562404
562221
562417
562536
562464
562512
562567
562814
560950
561027
561511
561672
561834
561701
561761
561783
561903
562327
562075
562169
562350
562364
562502
562473
562529
562580
562591
562698
562807
48077
46149
45487
560631
560873
561355
561356
561426
561787
561610
561962
561892
562121
562154
562166
562197
562403
562451
562594
562393
562396
562491
562421
562468
560980
561651
561795
561819
562096
561847
561981
562102
561974
562001
561863
562119
562449
562100
562467
562611
562161
562245
562328
562330
562389
562391
562842
46776
561090
561245
561378
561377
561334
561915
561719
561879
562003
562019
562002
562279
561998
562170
562486
562153
562832
563040
560310
560996
561081
561630
561503
561544
562014
561897
561855
562009
562367
561963
562113
562195
562053
562305
562325
562685
562342
562588
562965
560044
561572
561595
561771
561801
561954
562017
561891
561941
561926
561970
562144
562174
562435
562231
562445
562369
562394
562398
562423
562625
48905
561015
561123
561286
561517
561583
561964
562042
561957
561953
562191
562331
562022
562184
562152
562189
562160
562286
562363
562424
562609
562608
562959
562925
560532
560913
560947
561100
561498
561495
561403
561452
561872
561551
561768
561841
561886
562336
562386
562352
562438
562630
562550
562908
562846
563170
51371
561416
561681
561632
561996
561777
562271
562031
562101
562125
562032
562065
562493
562310
562440
562380
562514
562557
562633
562701
562690
47680
561089
561294
561515
561698
561643
562006
562056
562248
562210
562137
562196
562444
562181
562302
562422
562335
562715
562447
562477
562678
562561
562834
562991
563031
560584
561545
561606
562052
562142
561802
562246
562316
562365
562513
562615
562617
562722
562758
562815
562825
562811
562995
563000
46132
561045
561208
561602
561796
562183
561860
562107
562247
562049
562227
562321
562355
562360
562480
562476
562668
562813
562837
562850
562926
43616
561150
561501
561513
561666
561530
562089
561746
561799
562080
561852
561989
561972
562488
562597
562802
563098
48159
561326
561562
561867
561856
561934
562112
562078
562011
562200
562518
562345
562434
562559
562772
562738
562889
563168
563086
45239
560549
560628
561158
561566
561739
561837
561667
561900
561779
561861
562359
561971
562462
562123
562241
562211
562220
562266
562726
562977
562909
562919
45440
47688
561369
561374
561715
561850
561800
562048
561869
562044
562419
562055
562122
562317
562198
562232
562606
562303
562370
562649
562527
562590
562612
562756
562805
562993
562997
563030
47656
561028
561862
561975
561885
561913
562291
562351
562047
562145
562281
562296
562533
562619
562650
562799
45903
560779
561475
561492
561628
561735
562094
562215
561924
562406
561977
562257
562306
562173
562500
562395
562193
562655
562408
562556
562720
562686
562683
562779
562870
562905
562900
561697
561798
561659
561899
561927
562020
561955
562457
562528
562623
562357
562475
562570
562830
562463
562492
562717
562961
562979
563036
563231
563350
560849
561277
561584
561591
561986
561921
562474
562297
562308
562543
562551
562923
562634
562646
562734
562739
562757
562768
562984
562910
51127
560078
560811
560826
561263
561708
562110
562120
562132
562256
562178
562521
562548
562506
562535
562554
562754
562840
562804
562946
563068
563072
48425
561346
562190
562381
562941
562520
562534
562547
562589
562642
562736
562777
562824
562818
562862
562904
562971
562982
48392
560611
561716
561724
561840
562135
562124
562242
562320
562067
562347
562509
562412
562674
562906
562546
562596
562780
562881
562944
562917
562933
563210
563060
563145
563227
50906
560862
561888
561965
561864
562076
562162
562255
561999
562269
562399
562150
562243
562259
562558
562487
562539
562576
562607
562508
562544
562661
562791
563066
563004
563103
561534
561909
561951
562010
561776
562319
562274
562290
562387
562285
562293
562371
562784
562437
562443
562482
562552
562789
562755
562947
563288
46019
561722
561939
561917
562397
562086
562192
562401
562448
562374
562234
562532
562711
562651
562696
562781
562866
563172
563007
563038
563119
46049
47699
560934
561557
561528
562326
562425
562648
562299
562409
562517
562702
562538
562663
562714
562793
562839
563249
563348
43286
46544
47650
561524
561887
562059
562085
562284
562058
562106
562516
562379
562459
562800
562471
562593
562735
562854
562897
563046
563129
563219
46617
561984
562050
562130
562203
562368
562084
562312
562420
562583
562584
562489
562745
562602
562721
562790
562914
562939
562865
563097
563115
563302
49332
561874
562179
562226
562344
562687
562415
562653
562523
562626
562851
562638
562677
562820
562689
563047
562783
562958
563118
563287
563269
563333
563390
563432
561268
561525
562298
562338
562156
562541
562522
562228
562267
562377
562838
562636
562643
562928
562708
562746
562766
562847
562903
562937
563117
563279
563345
563482
561522
561559
561741
561889
562433
562372
562225
562186
562497
562362
562383
562531
562671
562635
562737
562833
562938
562852
563128
563120
563203
563251
560872
561658
562177
562238
562051
562136
562481
562498
562725
562713
562750
563058
563121
563195
563330
563449
563381
561631
561896
562283
562375
562111
562641
562337
562740
562549
562575
562699
562753
562827
563015
563044
563029
563335
563114
563136
563141
563316
563336
563414
563735
48484
561499
561691
562268
562382
562446
562579
562581
562747
562680
562727
562786
562953
562999
562972
563059
563069
563362
561165
561415
561493
561825
561946
561993
562252
562571
562313
562470
563009
562861
562700
562916
562974
562868
562888
562932
563140
563215
563239
563509
561638
561740
561881
561916
562040
562309
562261
562416
562524
562511
562318
562390
562526
562710
563006
562644
562728
562957
562816
562874
562896
563022
563001
563091
563166
563280
563319
563408
44352
561251
562026
562307
562483
562553
562782
562601
562676
563002
562964
562948
562962
563147
563005
563160
563370
563242
563507
563586
47318
48743
562249
562000
562465
562373
562358
562301
562292
562460
562682
562691
562730
562767
562843
562954
562891
563019
563083
563389
49014
561749
561905
562149
562071
562175
562707
562339
562496
562586
562752
562665
562679
562821
562893
563010
563055
563367
563357
52399
48587
561275
561782
562235
562275
562428
562461
562151
562545
562598
562741
562817
563124
562836
562994
563217
563264
563395
46910
561560
561709
561895
561882
562126
562315
562323
562294
562361
562613
562731
562472
562563
562776
562988
563043
563169
563167
563180
563235
563467
563435
563660
563755
44964
562036
562072
562097
562115
562251
562278
561987
562660
562673
562945
562637
562744
563067
562989
563196
562729
562873
563107
563024
563157
563293
563535
563707
561481
561831
562037
562333
562341
562452
562530
562797
562907
562952
563079
562765
563159
562894
562949
562901
563402
563207
563262
563472
563514
563353
48433
44180
561774
561944
562432
562442
562540
562542
562515
562770
562774
562388
562859
562943
563017
562796
562845
563008
562763
562924
563109
563051
563236
563228
563257
563278
563374
563459
563536
563713
563631
45625
47796
49457
46899
49080
44035
48191
49058
45312
48953
44587
48855
47631
48032
47883
46737
45435
45602
44232
44260
44707
46759
46896
45723
48808
44874
48857
48925
44608
46639
45094
48884
44768
45619
47578
48761
48438
46597
47812
44687
46854
47391
45775
48798
46218
48372
48819
47291
45955
48722
48633
48570
48391
48609
44052
47208
43988
45827
47497
46872
49194
40980
49351
47638
46140
48396
48629
43712
45462
45228
44928
48621
48143
48329
42067
47730
47998
44696
41052
44981
45005
46306
44372
46958
44585
48379
45216
47936
44091
46276
42842
48440
47373
49092
46814
48516
44482
42417
46191
46844
47700
43151
43173
43825
41211
46470
45097
45428
45745
44675
45514
44583
40781
45766
47960
45786
47285
48915
46885
46476
47592
45710
48272
47310
48318
44428
45059
45360
46955
47910
43045
45792
45351
48577
48780
46634
44843
48215
42374
45885
43544
41027
41234
48455
48462
47637
47421
46496
47354
45613
43196
43445
47395
47552
48312
48791
48673
47563
48875
44639
48268
45533
49272
48173
47774
49801
44399
42629
47613
47415
47921
45843
42161
49021
48111
41810
48125
47496
47715
45854
48281
47976
41700
43156
48829
47445
41925
47236
48351
44249
48537
43948
43547
48971
48919
45196
46284
46526
48758
49085
41900
41643
42116
47767
48711
44672
47250
44880
47986
48370
41433
44082
47721
49099
43381
48134
45011
43222
50225
48850
47349
43754
41762
43628
47548
42258
41676
46498
48542
46928
45293
47179
49494
48064
49288
41503
42408
45746
45954
46153
48600
47311
45755
42991
45726
46842
43401
48066
48481
49409
47779
41450
43785
42942
44521
48033
47683
48645
50316
46080
46304
43846
48786
41259
49441
50337
45355
45721
45527
51296
43532
47054
45468
44228
44540
47689
48485
43068
48007
46252
48958
50375
46623
46307
47565
47352
50691
47630
49162
44403
48557
557585
557519
47042
557804
50444
557719
557936
46014
558076
47804
51155
49895
557238
557522
557570
558013
558321
44364
45952
556934
43852
557275
558005
558134
558396
45369
49049
557560
557922
558130
558404
558510
42719
48553
42503
558598
558896
558023
558390
558587
558619
558637
558923
558316
558298
558626
559081
44265
51862
45039
558430
558374
559232
558901
559221
47370
558631
559178
45586
47147
558087
558154
558718
559697
48908
557888
557903
559665
557410
558667
558938
559125
48412
558612
558617
558739
559324
45299
42012
48228
48745
557148
558468
558877
558787
558969
559097
558855
557578
558388
558904
558862
558869
559115
559510
559923
560326
558185
558848
558965
559613
559193
559285
559416
559386
559602
559599
559880
560005
558521
559107
558273
558800
558961
558978
559019
559303
559745
560064
559248
559239
559293
559656
559128
559754
560074
45384
558204
558313
558562
558570
559095
559413
559159
559351
559384
559481
559387
559738
559937
558334
558579
558662
558828
559031
559328
559479
559581
559633
560186
559817
560777
48393
558733
558859
558880
559065
559270
559570
559347
559759
559454
559945
560137
560127
560134
557775
558614
559336
559546
559577
559598
559737
559422
559741
559859
44543
48269
46798
49829
40364
558435
559165
559086
559357
559739
560546
48212
558095
558310
558386
559122
559772
559691
560098
560015
559824
560244
560547
559119
559008
559256
559740
559308
559947
559785
559983
559898
560025
560225
560051
560352
560568
44983
558090
558830
559277
559247
559556
559562
559973
559499
560061
560126
560685
45413
558642
559041
559330
559369
559564
559832
559627
559882
559988
559938
559985
560085
560276
560571
560577
560330
560445
47290
557754
559353
559828
559729
559854
560153
560342
560778
560052
560119
560202
560386
560595
560741
560878
560672
47587
557739
558128
558678
558963
559175
559512
560133
560106
560079
559815
559784
560814
560246
560218
560433
561064
47727
558858
559111
559299
559331
559583
559722
559350
560612
559690
559701
559902
560176
559986
560214
560413
560239
560493
560484
560633
560679
560745
560915
42027
46847
559753
560001
560084
559563
560123
560253
559826
560053
560151
560287
560315
560327
560451
560559
560536
560639
560609
560906
560939
559557
559787
559848
560165
559998
560060
560187
560552
560141
560281
560203
560302
560543
560640
560711
560435
560566
560501
560563
560875
561030
48237
41163
559136
559180
559381
559522
560377
559686
559901
559871
560034
559789
559823
560395
560138
560065
560208
560201
560475
560472
560576
560841
560812
560648
560667
560856
561093
561285
561343
558604
558782
558833
558857
559666
559568
559800
559560
560692
559932
560461
559943
560020
560080
560163
560973
560400
560490
560621
560544
560924
560823
561166
561367
558955
558975
558983
559168
559521
559523
559612
559856
559716
559915
560002
560217
560026
560047
560144
560289
560434
560555
560314
560485
560582
560675
560799
560992
560775
561087
560986
561060
561173
561257
47861
558417
559992
560000
559864
560125
560158
560173
560338
560557
560838
560637
560696
560666
560677
560809
560971
560843
560956
560948
561001
45932
48070
558474
558712
559218
559379
559958
560030
559881
560382
559812
560643
560710
560998
44083
45056
47183
47427
558516
558876
559114
559746
559704
559978
560160
560121
560421
560372
560316
560645
560458
560588
560734
560806
560689
560817
561267
43581
44836
44721
559025
559174
559620
559693
560045
559837
559862
559840
560130
560469
560586
560797
560617
560408
560641
560755
560876
561099
561361
561144
561295
561622
45767
45692
558664
559437
559679
559876
560350
559939
560502
560117
560179
560456
560540
560927
560681
560846
561157
560984
560951
561314
561468
46530
559424
559595
559672
559535
560103
560385
560542
560360
560407
560638
560765
560816
561026
561266
45965
47781
558840
559273
559615
560331
560131
560267
560066
560705
560219
560369
560354
560564
560561
560861
560476
560661
560834
560866
560893
560938
561037
561168
561483
48297
559539
560014
560211
560321
559972
560037
560492
560213
560190
560591
560364
560422
560644
560815
560942
561331
561200
46722
559497
559771
559861
559744
560215
560220
560262
560311
560142
560739
560820
560478
560498
560693
560768
560414
560650
560699
560991
560774
561022
561192
561188
42602
43920
48385
558414
560155
560004
560671
560459
560177
560409
560979
560487
561021
561063
560943
561108
561167
561141
561216
47581
46334
47360
559224
559580
560057
559685
560306
560200
560113
560756
560340
560770
560264
560234
560513
560560
560553
560894
560793
560961
560928
561145
561061
561574
45641
559274
559796
559770
559942
560205
560022
560268
560525
560270
560481
560709
560443
560646
560690
560994
560905
561139
560910
561136
561231
561836
41190
46354
558171
558531
558582
559486
559591
559635
559720
560254
559830
560521
560510
560535
560572
560802
560907
561110
561538
561494
561690
558808
559120
559611
559941
560318
560122
560128
560255
560610
560603
560606
560889
560909
560730
560736
560887
560975
561219
561328
561607
42850
45981
559301
559872
559869
560073
560322
559914
560384
560537
560303
560720
560914
560333
560972
561152
560881
560714
561175
561185
561199
44233
46043
558910
559230
559153
559492
559582
559614
560167
560194
560105
560430
561008
560424
560683
560701
560833
561407
561763
42742
48928
559663
559707
560279
560040
560009
561013
560404
560480
560805
560491
560657
560729
561002
560796
560771
560908
560969
561102
561409
561082
558924
559508
559993
559275
560343
560629
560604
560024
560349
560159
560682
560721
560854
561059
561179
560912
561032
561096
561172
561113
561276
561465
561505
48250
41240
40957
559329
560402
559922
560931
560447
560112
560366
560691
560883
561031
561253
561523
561254
561472
561682
41559
558772
559676
559997
560489
560379
560312
560180
560252
560358
560394
560545
560616
560550
560605
560652
560897
561439
560989
561112
561023
561265
561256
561360
561190
561233
561281
561380
561437
561571
561713
561805
561646
45961
559113
559631
559678
559760
559619
560036
560204
560212
560580
560266
560178
560416
560742
561017
560867
560902
561057
561134
561269
561050
561210
561453
561431
47300
558786
559721
559588
559976
560503
560695
561215
561325
560987
560978
561582
561342
561352
561446
561695
49339
559009
559332
560077
560649
560827
560660
560623
560898
560237
560381
560529
560842
560922
560884
560786
560727
560869
561302
561382
561097
561160
561249
561375
561222
561514
561616
561596
561793
47464
558952
559977
560248
560332
560839
560737
560871
560731
561042
561255
561443
561480
561510
561618
48252
558318
559487
559886
560071
560452
560393
560486
560285
560263
560442
560694
561161
561258
561040
561153
561137
561195
561322
561339
561637
561341
561655
561445
561590
561898
559807
559984
560114
560041
560523
560293
560357
560918
560983
561025
561149
561289
561592
561381
561621
561733
561679
48540
46683
558590
558720
558988
559102
559309
559397
559240
559960
560664
560622
560425
560807
560415
560703
561107
560949
561178
560795
561578
561187
561062
561070
561450
561384
561211
561237
561320
562062
44766
559143
559566
559780
560554
560662
560776
561117
560813
560981
561177
561180
561303
561132
561205
561140
561344
561370
561848
561394
561858
561581
561756
42591
559147
559426
559841
559847
560235
560810
561010
560397
560320
560747
560740
560832
560874
561290
561448
561282
561392
561421
561425
561464
561477
561589
561665
41699
48106
559356
559494
559731
560097
559966
560569
560499
560704
560763
560585
560967
561011
560999
561038
561156
561420
561402
561565
561379
561594
561835
561773
559407
559694
559987
560328
560145
560852
560410
560635
560191
560620
560917
560988
560850
561091
560724
560860
560787
561006
561069
561227
561240
561540
561454
561668
45252
50553
45290
560607
561204
561003
561014
561035
561066
561111
561412
561297
561775
559112
559868
560198
560154
560223
560405
560243
560565
560804
560524
560647
560399
561020
561414
561151
561005
561007
561442
561587
561812
561997
562182
559436
559890
559893
560075
561004
561016
560573
560674
560900
560916
560483
561357
561406
561088
561350
561552
561804
561942
562093
48102
559573
560192
560241
560221
559919
560301
560789
560519
560773
561262
561074
560870
560941
561521
561391
561959
561502
561810
562088
559874
560082
560700
560280
560726
560375
560419
560960
560977
560851
561304
561106
561288
561317
561542
561558
561828
561910
562073
562091
562264
48336
559596
560116
560184
561230
560882
561085
561105
560966
561076
561316
561239
561365
561235
561348
561383
561323
561347
561422
561478
561519
561573
561718
561725
561967
41756
559017
559264
559865
560143
560232
560324
560926
560541
560587
560830
560963
561103
561019
561048
561191
561466
561619
561770
562218
558935
559967
560231
560297
560656
560744
560601
560761
561133
560891
561047
561142
561224
561232
561362
561469
561527
561345
561463
561529
561645
561705
559724
560371
560497
560892
560668
561071
561104
561423
561065
561217
560970
562004
561247
561372
41713
42165
44820
560348
560752
561300
560373
560453
561075
560848
560982
561098
561119
561797
561550
561576
561717
561730
561732
561933
562118
559761
560033
560516
560548
560558
560651
560653
560944
561332
561073
561309
561488
561176
561497
561307
561143
561223
561803
561752
561762
561821
562007
562103
45852
559834
560150
560337
560686
561131
561036
561068
561209
561138
561181
561146
561147
561280
561554
561261
561390
561396
561579
561506
561751
561789
561826
45933
559571
560383
560716
560800
560272
560707
560429
561306
561248
561311
561189
561169
561242
561447
561393
561457
561609
561555
561604
561750
561794
561949
562202
562216
48675
42381
559423
560511
560772
560718
560619
560835
560831
561092
561000
561052
561246
561220
561336
561313
561371
561438
561467
562057
562016
558962
559438
559706
559883
561198
561024
560818
560965
561634
561252
561605
561683
561260
561434
561410
561520
561766
562289
562407
47428
560018
560161
560534
560717
561079
560962
560930
561174
560945
560957
561214
561272
561009
561202
561312
561386
561405
561397
561710
561936
561535
561611
561728
561661
561880
562244
562354
47145
559468
559842
559857
560017
559889
560226
560390
560512
560764
560958
560507
561433
561229
560936
561184
561617
561585
562147
561626
561827
561815
561929
41768
44777
45202
40658
560418
560426
560420
560504
560825
560578
560658
560735
560921
561193
561531
561648
561700
561877
561907
562280
558301
559618
560168
560466
560824
561164
560976
561335
561118
561496
561278
561509
561792
561723
561785
561958
561988
562159
48896
48536
559803
559968
560295
560444
560791
560581
560514
561115
560477
561018
561129
561109
560911
560919
561664
561508
561226
561512
561279
561922
561721
561928
561633
561671
561676
561845
562005
562024
562063
562566
46100
47736
559184
559660
559698
560334
560479
560509
560347
560624
560242
561072
560896
561490
561274
561388
561398
561432
561476
561549
561694
562127
562495
44317
559643
560193
560423
560663
560953
561046
560886
560473
561033
561430
561484
561537
561486
561688
561758
561919
561912
562079
562164
562282
41362
44274
560096
560713
560732
561056
560788
561148
561126
561162
561436
561358
561561
561580
561640
561707
561759
561823
558971
559658
559763
560006
560286
560494
560785
560952
560844
560935
561067
561401
561338
561363
561053
561696
561516
561435
561556
561693
562143
559092
559995
560261
560336
560615
560597
560766
560964
561225
560723
560863
561221
561054
561593
561291
561500
561413
561639
561808
561349
561479
561614
561569
561685
562021
562229
47416
559503
560011
560840
561389
561811
561613
561471
561385
561487
561736
561625
561890
561982
561674
561747
561945
562239
562139
44451
560076
560300
560339
560556
560901
560925
561094
561533