/*--------------------------------*- C++ -*----------------------------------*\
| =========                 |                                                 |
| \\      /  F ield         | OpenFOAM: The Open Source CFD Toolbox           |
|  \\    /   O peration     | Version:  v1906                                 |
|   \\  /    A nd           | Web:      www.OpenFOAM.com                      |
|    \\/     M anipulation  |                                                 |
\*---------------------------------------------------------------------------*/
FoamFile
{
    version     2.0;
    format      ascii;
    class       Cloud<passiveParticle>;
    location    "2.83/lagrangian/coalCloud1";
    object      positions;
}
// * * * * * * * * * * * * * * * * * * * * * * * * * * * * * * * * * * * * * //

53638
(
(0.125925 3.41895 -1.1e-09) 19830
(0.125997 3.42484 -1.73315e-19) 19890
(0.124349 3.4293 -2.99228e-19) 19889
(0.124161 3.43157 -4.84e-09) 19949
(0.12185 3.41577 -2.5488e-19) 19769
(0.120591 3.42713 -2.2e-09) 19888
(0.124339 3.40931 -1.1e-08) 19709
(0.120731 3.41887 -4.12025e-19) 19828
(0.120531 3.42055 -1.1e-09) 19828
(0.120298 3.42181 4.91374e-19) 19828
(0.119893 3.42548 1.1e-09) 19888
(0.118937 3.41969 9.19765e-20) 19828
(0.116517 3.40564 -3.52e-09) 19707
(0.115278 3.40609 2.99399e-19) 19707
(0.118948 3.42609 -4.4e-09) 19888
(0.115082 3.40839 2.2e-09) 19707
(0.117806 3.42442 -5.54024e-19) 19888
(0.116038 3.41913 -3.3e-09) 19827
(0.114117 3.41562 -3.3e-09) 19767
(0.108452 3.40675 -1.98507e-19) 19706
(0.117702 3.42808 1.69513e-19) 19888
(0.113523 3.41903 1.1e-09) 19827
(0.117439 3.42885 6.6e-09) 19888
(0.111782 3.41873 2.2e-09) 19826
(0.119977 3.43491 1.1e-09) 19948
(0.116089 3.42816 1.1e-08) 19887
(0.115777 3.42789 1.49225e-20) 19887
(0.112201 3.42355 -2.2e-09) 19826
(0.115327 3.42761 6.6e-09) 19887
(0.114918 3.42855 -1.1e-09) 19887
(0.108746 3.4236 6.82e-09) 19826
(0.112396 3.42826 -4.62803e-19) 19886
(0.110461 3.42806 6.6e-09) 19886
(0.110372 3.43008 1.1e-09) 19886
(0.108502 3.43359 3.3e-09) 19946
(0.11091 3.43904 1.1e-09) 20006
(0.112588 3.43921 4.4e-09) 20007
(0.10763 3.44029 2.39525e-19) 20005
(0.116085 3.43878 1.1e-08) 20007
(0.110191 3.44029 -3.3e-09) 20006
(0.109916 3.44324 1.90459e-19) 20066
(0.111603 3.44401 -5.83e-09) 20066
(0.108757 3.45111 -2.37867e-19) 20126
(0.112738 3.44878 -1.1e-09) 20067
(0.107646 3.46008 8.55274e-20) 20185
(0.108958 3.46073 1.1e-08) 20186
(0.109722 3.4597 7.98355e-20) 20186
(0.121935 3.44114 -4.4e-09) 20009
(0.110059 3.46286 -7.7e-09) 20246
(0.109879 3.46475 1.1e-09) 20246
(0.116065 3.45282 2.03136e-19) 20127
(0.105869 3.4798 1.1e-09) 20425
(0.113225 3.46118 1.1e-08) 20247
(0.10434 3.4869 1.26001e-19) 20485
(0.109693 3.47077 -4.4e-09) 20306
(0.115336 3.45842 -3.3e-09) 20187
(0.10587 3.48972 1.21659e-19) 20485
(0.104794 3.4948 -3.3e-09) 20545
(0.10856 3.48186 -2.2e-09) 20426
(0.112523 3.46928 3.98974e-19) 20307
(0.12229 3.4426 7.7662e-19) 20009
(0.114005 3.46647 4.39243e-19) 20247
(0.112713 3.47053 -2.2e-09) 20307
(0.122317 3.44272 5.46526e-19) 20069
(0.106753 3.49779 -7.23415e-19) 20605
(0.110758 3.48883 7.56721e-20) 20486
(0.112936 3.48159 1.59916e-19) 20427
(0.115924 3.47198 6.6e-09) 20307
(0.110171 3.50066 3.77499e-20) 20606
(0.114601 3.48142 -3.41e-09) 20427
(0.115321 3.47967 -1.1e-08) 20427
(0.115077 3.4815 1.529e-09) 20427
(0.117985 3.46805 -3.91279e-19) 20308
(0.111942 3.50286 4.4e-09) 20606
(0.119857 3.4621 -5.5e-09) 20248
(0.115974 3.48139 -1.06577e-19) 20427
(0.113743 3.49523 5.5e-09) 20547
(0.116495 3.48017 3.98057e-19) 20427
(0.11243 3.50659 -3.3e-09) 20666
(0.115675 3.48646 -6.6e-09) 20487
(0.114895 3.49204 6.6e-09) 20547
(0.113408 3.50291 -1.1e-08) 20607
(0.121837 3.45334 8.8e-09) 20129
(0.115703 3.48961 -2.2e-09) 20487
(0.115517 3.49593 1.39522e-19) 20547
(0.116093 3.49388 -4.4e-09) 20547
(0.119906 3.47074 1.94064e-19) 20308
(0.113666 3.51841 8.8e-09) 20787
(0.120085 3.47112 1.1e-08) 20308
(0.116237 3.50072 -4.4e-09) 20607
(0.11636 3.49973 6.6e-09) 20607
(0.119546 3.47765 5.5e-09) 20368
(0.11925 3.48232 -2.2e-09) 20428
(0.117681 3.49633 2.2e-09) 20548
(0.117502 3.50267 -4.89161e-19) 20608
(0.120159 3.47904 -1.65847e-20) 20368
(0.120943 3.47269 6.6e-09) 20309
(0.121101 3.47107 1.66498e-19) 20309
(0.118854 3.49294 -3.3e-09) 20548
(0.122299 3.46207 -1.18859e-19) 20249
(0.121398 3.47115 -1.1e-08) 20309
(0.117091 3.51836 1.1e-09) 20788
(0.117463 3.51621 -6.215e-09) 20788
(0.11954 3.49467 2.2e-09) 20548
(0.12123 3.47699 1.67542e-19) 20369
(0.118248 3.51732 -8.404e-09) 20788
(0.122483 3.46658 -1.1e-08) 20249
(0.122632 3.46839 1.54139e-19) 20309
(0.120014 3.50057 -1.1e-09) 20608
(0.119786 3.50497 2.2e-09) 20668
(0.119186 3.51497 -3.59904e-19) 20728
(0.119743 3.50893 -3.75184e-19) 20668
(0.119866 3.50984 6.16481e-20) 20728
(0.122589 3.47272 2.2e-09) 20309
(0.120431 3.50339 -7.7e-09) 20668
(0.121588 3.48756 -1.98033e-19) 20489
(0.120637 3.50729 4.11659e-19) 20668
(0.121852 3.49321 -7.7e-09) 20549
(0.121048 3.51713 -5.67495e-19) 20789
(0.121594 3.51598 1.1e-09) 20789
(0.124177 3.46335 -1.1e-08) 20249
(0.122968 3.48792 -1.1e-09) 20489
(0.12181 3.5137 7.92e-09) 20729
(0.123013 3.48701 6.6e-09) 20489
(0.123004 3.4921 3.3e-09) 20549
(0.123303 3.49014 -4.4e-09) 20489
(0.123821 3.47702 7.12294e-21) 20369
(0.122828 3.50924 -4.4e-09) 20729
(0.124058 3.48042 -2.98329e-19) 20429
(0.124342 3.48752 1.29757e-19) 20489
(0.124228 3.50643 -2.2e-09) 20669
(0.12464 3.48496 7.7e-09) 20429
(0.125421 3.54816 -1.68811e-19) 21090
(0.125149 3.47429 2.61951e-20) 20370
(0.125607 3.46382 -1.1e-09) 20250
(0.126141 3.48632 9.9e-09) 20490
(0.126128 3.46953 -6.6e-09) 20310
(0.127272 3.52869 -3.3e-09) 20910
(0.127532 3.52898 4.4e-09) 20910
(0.129834 3.55604 6.6495e-19) 21151
(0.129805 3.55006 4.33692e-19) 21091
(0.126932 3.47783 1.96129e-19) 20370
(0.127234 3.47774 2.2e-09) 20370
(0.131212 3.54556 -4.73e-09) 21091
(0.12976 3.51694 -1.29421e-19) 20791
(0.133342 3.55286 -2.2e-09) 21152
(0.127725 3.46814 -1.1e-08) 20310
(0.127197 3.43963 -7.7e-10) 20010
(0.130651 3.56319 1.1e-08) 21271
(0.128915 3.4825 6.6e-09) 20430
(0.127961 3.46013 -9.79811e-20) 20190
(0.127749 3.45343 3.3e-09) 20130
(0.131651 3.56137 5.5e-09) 21211
(0.131911 3.51378 -1.1e-08) 20731
(0.128097 3.45438 -1.91597e-19) 20130
(0.129682 3.47939 2.2e-09) 20431
(0.132233 3.50991 -1.1e-08) 20731
(0.128742 3.46275 2.78729e-19) 20250
(0.127623 3.44084 7.7e-09) 20010
(0.129892 3.47832 8.8e-09) 20371
(0.128254 3.45155 -3.3e-09) 20130
(0.130907 3.4906 -1.1e-09) 20491
(0.130366 3.4789 -8.24985e-20) 20371
(0.13818 3.54178 -9.9e-09) 21033
(0.137331 3.5657 -7.81359e-20) 21272
(0.129706 3.46399 -7.21641e-19) 20251
(0.135607 3.55454 4.4e-09) 21152
(0.130268 3.4664 -7.9495e-20) 20251
(0.129975 3.46208 3.3e-09) 20251
(0.130839 3.47072 -5.5e-10) 20311
(0.137946 3.52717 -3.3e-09) 20913
(0.132094 3.4819 -4.4e-09) 20431
(0.140519 3.5684 3.84987e-19) 21333
(0.141525 3.57264 -3.80731e-19) 21333
(0.128478 3.44253 -1.1e-08) 20010
(0.128796 3.44518 3.3e-09) 20070
(0.129648 3.45444 8.8e-09) 20131
(0.141114 3.53556 4.4e-09) 20973
(0.140185 3.53893 -3.65833e-20) 21033
(0.130732 3.46075 -1.1e-08) 20191
(0.143604 3.56855 -1.1e-09) 21334
(0.138676 3.51432 2.40183e-19) 20733
(0.130894 3.46103 4.4e-09) 20251
(0.132078 3.46865 1.1e-09) 20311
(0.140109 3.51994 1.1e-08) 20793
(0.140636 3.52226 3.3e-09) 20853
(0.132209 3.46985 -5.5e-09) 20311
(0.141102 3.52228 4.4e-09) 20853
(0.131676 3.464 2.86e-09) 20251
(0.127592 3.42589 5.5e-09) 19890
(0.145028 3.55946 -4.4e-09) 21214
(0.13988 3.50845 6.6e-09) 20673
(0.130612 3.45082 -4.4e-09) 20131
(0.142712 3.54622 -2.99467e-19) 21094
(0.132159 3.46006 -6.88708e-20) 20191
(0.146601 3.55724 -5.5e-09) 21215
(0.132176 3.45947 -4.4e-09) 20191
(0.148236 3.56096 3.3e-09) 21215
(0.127509 3.42526 1.1e-08) 19890
(0.145536 3.55201 1.1e-08) 21154
(0.144515 3.54819 1.1e-09) 21094
(0.13344 3.46522 2.29283e-19) 20252
(0.15119 3.56684 1.1e-08) 21276
(0.135223 3.47442 -1.1e-09) 20372
(0.12984 3.44167 4.51e-09) 20011
(0.143774 3.54148 3.3e-10) 21034
(0.135862 3.47679 4.29e-09) 20372
(0.143977 3.54098 -4.86038e-20) 21034
(0.145181 3.54279 4.74715e-19) 21034
(0.151754 3.56273 -5.5e-09) 21276
(0.15201 3.56223 -5.5e-09) 21276
(0.135512 3.47178 -8.8e-09) 20312
(0.15167 3.55985 -1.37037e-19) 21216
(0.153327 3.56336 6.6e-09) 21276
(0.156912 3.57261 1.1e-08) 21337
(0.134102 3.46224 -1.86044e-19) 20252
(0.152241 3.55877 -4.4e-10) 21216
(0.134344 3.46233 2.2e-09) 20252
(0.150891 3.55098 3.3e-09) 21156
(0.147941 3.53995 2.2e-09) 21035
(0.13432 3.45922 5.5e-09) 20192
(0.153642 3.55296 -2.2e-09) 21156
(0.158887 3.56557 -3.08842e-20) 21278
(0.157803 3.56214 -4.4e-09) 21277
(0.162359 3.56843 -6.6e-09) 21338
(0.127346 3.42095 -1.1e-09) 19830
(0.136808 3.46703 1.1e-08) 20252
(0.1453 3.49683 -7.7e-09) 20554
(0.141283 3.48219 4.07e-09) 20433
(0.135964 3.46183 2.78521e-19) 20252
(0.161198 3.5607 -1.1e-08) 21218
(0.133465 3.4504 -1.1e-08) 20132
(0.147601 3.50159 -1.1e-09) 20615
(0.144617 3.49238 3.37548e-19) 20554
(0.134278 3.45331 -4.4e-09) 20132
(0.136075 3.45907 5.5e-09) 20192
(0.152372 3.5342 -6.6e-09) 20976
(0.16764 3.56681 -2.2e-09) 21280
(0.1623 3.55513 1.1e-08) 21158
(0.147607 3.49592 3.3e-09) 20555
(0.163408 3.55437 -3.3e-09) 21159
(0.150062 3.49786 -5.5e-09) 20616
(0.138763 3.46361 3.3e-09) 20253
(0.135872 3.45322 -1.1e-08) 20132
(0.173896 3.56643 -4.4e-09) 21281
(0.136441 3.45374 -3.3e-09) 20132
(0.166868 3.55067 -2.2e-09) 21160
(0.179254 3.57053 8.91e-09) 21343
(0.14236 3.47139 4.00592e-19) 20314
(0.160159 3.53568 5.5e-10) 20978
(0.150511 3.49218 -3.3e-09) 20556
(0.139454 3.46105 2.2e-09) 20253
(0.178494 3.56538 6.84655e-20) 21282
(0.174746 3.55932 -5.57792e-19) 21221
(0.161686 3.53485 3.60875e-20) 20978
(0.16958 3.54847 -4.4e-09) 21100
(0.137014 3.45214 2.82675e-19) 20132
(0.15125 3.49004 -3.80553e-19) 20496
(0.150053 3.50251 3.07893e-20) 20616
(0.13582 3.44711 -3.71181e-20) 20072
(0.135297 3.44555 -3.3e-10) 20072
(0.166842 3.53958 4.26086e-20) 21040
(0.188009 3.57047 1.1e-09) 21345
(0.150686 3.4978 -4.4e-09) 20616
(0.135527 3.44578 -1.96028e-19) 20072
(0.164757 3.53407 -3.0919e-19) 20979
(0.139702 3.45669 2.2e-09) 20193
(0.167778 3.53732 -4.4e-09) 20980
(0.191935 3.57144 -1.1e-08) 21346
(0.179272 3.55356 9.9e-09) 21163
(0.176899 3.54991 4.4e-09) 21102
(0.13216 3.43379 7.7e-09) 19951
(0.178383 3.55113 -2.2e-09) 21162
(0.141901 3.46017 1.1e-09) 20194
(0.152393 3.50544 -4.4e-09) 20676
(0.159588 3.51655 5.5e-09) 20798
(0.138829 3.45026 -4.4e-09) 20133
(0.200344 3.57033 -2.2e-09) 21348
(0.164967 3.52403 5.01498e-19) 20859
(0.189913 3.55815 -1.1e-09) 21225
(0.196257 3.56531 8.8e-09) 21287
(0.160749 3.51581 -4.4e-09) 20798
(0.192688 3.55908 -4.4e-09) 21226
(0.136098 3.44149 2.3626e-19) 20012
(0.140065 3.45105 4.4e-09) 20133
(0.137414 3.44487 -1.1e-08) 20072
(0.160046 3.51258 5.5e-10) 20738
(0.167765 3.52459 -6.97484e-20) 20860
(0.188458 3.55238 -3.95604e-19) 21165
(0.16182 3.51499 1.69883e-19) 20738
(0.196983 3.56056 -4.4e-09) 21227
(0.153004 3.49911 -5.5e-09) 20616
(0.170857 3.5279 -3.02088e-19) 20921
(0.127772 3.41845 -1.1e-08) 19830
(0.161397 3.5124 -6.6e-09) 20738
(0.170916 3.52586 -1.53484e-19) 20861
(0.141021 3.4507 -1.91259e-19) 20133
(0.215416 3.57054 -3.41e-09) 21351
(0.186774 3.54174 -6.6e-09) 21044
(0.190714 3.54564 2.2e-09) 21105
(0.210064 3.56451 -1.1e-09) 21290
(0.189596 3.54247 -2.86e-09) 21045
(0.163662 3.50939 1.1e-08) 20739
(0.126453 3.4144 1.1e-09) 19770
(0.210669 3.56155 -6.6e-09) 21230
(0.141163 3.44802 7.48e-09) 20073
(0.185603 3.53548 -6.6e-10) 20984
(0.189224 3.53924 2.3112e-19) 21045
(0.218155 3.56588 8.8e-09) 21292
(0.168659 3.5135 3.18937e-19) 20740
(0.179866 3.5272 1.1e-08) 20923
(0.203792 3.55167 -2.6339e-19) 21168
(0.155796 3.49364 3.3e-09) 20557
(0.141573 3.44748 -1.1e-08) 20073
(0.182091 3.52745 -1.05628e-19) 20923
(0.157844 3.49557 -1.1e-08) 20557
(0.158623 3.49652 -2.2e-09) 20558
(0.196865 3.54031 -7.7e-09) 21047
(0.106122 3.50512 2.2e-09) 20665
(0.162932 3.5016 -1.11183e-19) 20619
(0.211302 3.55267 -4.4e-09) 21170
(0.141745 3.44612 -6.6e-09) 20074
(0.193193 3.53432 1.36047e-20) 20986
(0.185423 3.52562 4.07e-09) 20864
(0.139729 3.44159 9.9e-09) 20013
(0.177785 3.51617 3.29758e-19) 20802
(0.248755 3.4989 7.7e-09) 20639
(0.157554 3.48901 2.33842e-19) 20497
(0.17935 3.51417 3.67777e-19) 20743
(0.207888 3.5371 -8.44992e-20) 20989
(0.220284 3.54635 1.1e-08) 21112
(0.212446 3.54019 4.58516e-19) 21050
(0.171527 3.50221 -5.83e-09) 20621
(0.192574 3.52301 1.1e-08) 20866
(0.216561 3.54253 -4.00159e-19) 21051
(0.147197 3.44981 -4.22515e-19) 20135
(0.159956 3.48767 1.1e-09) 20498
(0.186189 3.51502 5.27772e-19) 20744
(0.199948 3.52571 -5.5411e-19) 20867
(0.237403 3.55198 2.04269e-19) 21176
(0.229266 3.54449 -6.6e-09) 21115
(0.134414 3.4282 -4.4e-09) 19892
(0.215091 3.53355 -6.92097e-19) 20991
(0.21734 3.53406 6.6e-09) 20992
(0.202396 3.52204 4.4e-09) 20868
(0.166257 3.48929 2.98751e-19) 20499
(0.174989 3.49727 -4.39058e-19) 20621
(0.206994 3.52358 9.9e-09) 20869
(0.141862 3.43803 -1.1e-08) 20014
(0.178339 3.49835 -1.43e-09) 20622
(0.205565 3.51813 -2.05181e-19) 20809
(0.209907 3.5206 -4.56064e-19) 20810
(0.216724 3.52514 2.99959e-19) 20872
(0.199506 3.5127 4.4e-09) 20747
(0.140904 3.43505 -2.2e-09) 19953
(0.189622 3.50396 3.63e-09) 20685
(0.155039 3.45194 5.5e-09) 20137
(0.145598 3.44047 -9.57349e-20) 20014
(0.142203 3.43616 9.9e-09) 19954
(0.165897 3.48216 2.2e-09) 20439
(0.179318 3.49409 2.18049e-19) 20563
(0.186165 3.49992 1.1e-09) 20624
(0.127598 3.41575 -7.7e-09) 19770
(0.139358 3.43202 3.3e-09) 19953
(0.168737 3.48412 -1.76e-09) 20440
(0.169461 3.48479 1.00297e-19) 20440
(0.195101 3.50443 -4.4e-09) 20686
(0.234912 3.52893 4.4e-09) 20936
(0.145583 3.43896 2.75552e-19) 20014
(0.143074 3.43508 -1.1e-08) 19954
(0.220591 3.51621 -1.03289e-19) 20812
(0.147017 3.43938 6.6e-09) 20015
(0.163575 3.47551 1.45798e-19) 20379
(0.13707 3.42777 -1.77029e-19) 19892
(0.196144 3.50104 1.1e-08) 20627
(0.215336 3.5129 3.3e-09) 20751
(0.206439 3.50395 -6.6e-09) 20689
(0.167408 3.4761 -8.8e-09) 20380
(0.210018 3.50555 -3.52e-09) 20690
(0.24848 3.48284 -1.1e-09) 20459
(0.219609 3.50962 -1.1e-08) 20752
(0.235211 3.51671 1.1e-09) 20816
(0.144769 3.43444 -1.35333e-19) 19954
(0.131116 3.41928 -2.2e-09) 19831
(0.159211 3.46707 -1.1e-08) 20258
(0.175519 3.47958 -9.9e-09) 20442
(0.177973 3.48134 -3.3e-09) 20442
(0.194713 3.49274 -2.2e-09) 20566
(0.18544 3.48578 -2.2e-10) 20504
(0.180835 3.48251 7.40923e-20) 20443
(0.191783 3.48961 -1.1e-08) 20506
(0.130059 3.41755 -7.34768e-19) 19771
(0.213876 3.5004 -1.1e-09) 20631
(0.214965 3.50021 -2.2e-11) 20631
(0.161465 3.46639 -1.20402e-19) 20258
(0.180578 3.48018 -3.52806e-19) 20443
(0.171278 3.47335 6.6e-09) 20381
(0.194495 3.48818 5.28e-09) 20506
(0.192404 3.48615 -8.8e-09) 20506
(0.216193 3.49731 1.1e-09) 20631
(0.145787 3.43242 1.92875e-19) 19954
(0.191157 3.48368 1.1e-08) 20445
(0.235664 3.50504 -8.8e-09) 20696
(0.206053 3.48965 -1.1e-09) 20509
(0.138601 3.425 4.02721e-20) 19893
(0.231419 3.50018 3.3e-10) 20635
(0.231878 3.4994 3.3e-09) 20635
(0.192231 3.47984 -5.5e-09) 20446
(0.134172 3.4203 2.12679e-19) 19832
(0.180184 3.47172 -3.52e-09) 20323
(0.239061 3.49687 1.1e-08) 20577
(0.211524 3.48306 6.00549e-19) 20450
(0.173703 3.4646 2.2e-09) 20261
(0.183288 3.46947 -7.94074e-19) 20323
(0.193056 3.47387 -1.1e-08) 20386
(0.163944 3.45859 9.9e-09) 20199
(0.142708 3.42557 6.6e-09) 19894
(0.213531 3.48236 2.63485e-19) 20451
(0.240263 3.4915 1.0838e-21) 20577
(0.167793 3.46025 -1.35224e-19) 20200
(0.202224 3.47609 3.26684e-20) 20388
(0.211212 3.47946 1.1e-08) 20450
(0.145165 3.42649 2.14422e-19) 19894
(0.191948 3.47074 1.1e-08) 20326
(0.214332 3.47959 -2.39761e-19) 20451
(0.201526 3.47426 -1.79049e-19) 20388
(0.162753 3.45544 2.2e-09) 20199
(0.200749 3.47163 5.5e-09) 20328
(0.209149 3.47337 9.02285e-20) 20390
(0.2217 3.477 -5.37123e-20) 20393
(0.242601 3.48357 -3.3e-09) 20458
(0.211369 3.47328 -3.34264e-19) 20390
(0.162623 3.45302 -1.46722e-20) 20139
(0.173508 3.45811 3.3e-09) 20201
(0.170799 3.45568 -3.85284e-20) 20200
(0.235928 3.47849 1.1e-08) 20396
(0.195646 3.4638 1.1e-09) 20266
(0.231668 3.47491 2.12649e-19) 20395
(0.150292 3.42584 -9.45331e-20) 19896
(0.197992 3.4626 -5.5e-09) 20267
(0.223428 3.47051 1.61036e-19) 20333
(0.235839 3.47045 -3.3e-09) 20336
(0.139566 3.41905 4.62e-09) 19833
(0.184644 3.45501 -1.42809e-20) 20204
(0.158472 3.44566 4.4e-09) 20078
(0.207101 3.46003 1.1e-08) 20209
(0.183651 3.45355 -4.55967e-19) 20144
(0.136527 3.41721 -3.10439e-20) 19772
(0.180474 3.45131 1.1e-09) 20143
(0.142822 3.41937 7.7e-09) 19834
(0.195308 3.45495 2.03641e-19) 20206
(0.233367 3.4629 1.85903e-19) 20276
(0.142532 3.41913 3.3e-09) 19834
(0.208779 3.45708 5.88051e-19) 20210
(0.223071 3.46034 2.2e-09) 20213
(0.201794 3.45515 7.7e-09) 20208
(0.198954 3.45254 -1.48444e-19) 20147
(0.238578 3.46033 1.60551e-19) 20217
(0.132837 3.4147 -4.4e-09) 19771
(0.219802 3.45506 -2.97315e-19) 20212
(0.18701 3.44809 4.29e-09) 20084
(0.199346 3.45048 -6.12985e-20) 20147
(0.147398 3.4188 -3.60444e-19) 19835
(0.21396 3.45193 6.05e-09) 20151
(0.222875 3.45321 -5.5e-09) 20153
(0.171594 3.44358 6.6e-09) 20081
(0.215997 3.44953 4.4e-09) 20151
(0.229221 3.451 3.4148e-19) 20155
(0.157986 3.43321 -2.2e-09) 19957
(0.171513 3.44153 -4.17351e-19) 20021
(0.219416 3.44909 -1.57939e-19) 20152
(0.170483 3.44119 -3.28007e-19) 20020
(0.228373 3.44984 -1.1e-09) 20154
(0.181989 3.44272 -2.73014e-19) 20083
(0.237162 3.44902 -1.1e-09) 20156
(0.147383 3.41677 9.5251e-20) 19775
(0.231685 3.44582 -1.1e-09) 20095
(0.180466 3.43898 -5.5e-09) 20023
(0.148979 3.41592 1.1e-09) 19775
(0.141496 3.41454 3.3e-09) 19773
(0.188205 3.43899 -2.2e-09) 20025
(0.205479 3.44012 -4.4e-09) 20029
(0.23186 3.44176 3.8322e-19) 20035
(0.202032 3.439 -1.1e-09) 20028
(0.146644 3.41469 2.2e-09) 19775
(0.173323 3.43626 -5.5e-09) 19961
(0.12973 3.41248 -2.2e-09) 19771
(0.146752 3.41431 2.2e-09) 19775
(0.200241 3.43737 -3.3e-09) 20028
(0.201182 3.43784 -7.7e-09) 20028
(0.16517 3.43466 2.2e-09) 19959
(0.237709 3.43904 -2.2e-09) 20037
(0.20148 3.43644 1.1e-08) 19968
(0.150762 3.41405 -5.16929e-20) 19776
(0.140908 3.4132 -9.9e-09) 19773
(0.195688 3.43575 2.2e-09) 19966
(0.235941 3.43555 -2.70134e-19) 19976
(0.138403 3.41256 5.5e-09) 19773
(0.167159 3.43264 1.1e-08) 19960
(0.212001 3.43402 2.2e-09) 19970
(0.242659 3.43226 2.04412e-19) 19978
(0.204914 3.43134 1.1e-09) 19969
(0.148551 3.41188 1.1e-08) 19775
(0.135947 3.72347 1.1e-08) 23012
(0.140192 3.71602 2.2859e-19) 22893
(0.134042 3.7021 -7.7e-09) 22772
(0.134205 3.6997 -4.4e-09) 22712
(0.149245 3.71933 6.6e-09) 22955
(0.15471 3.72665 6.6e-09) 23017
(0.148958 3.71696 -2.88011e-19) 22895
(0.152933 3.72289 -9.28172e-20) 23016
(0.14387 3.70874 -1.1e-09) 22834
(0.144206 3.70795 -1.77333e-19) 22834
(0.145065 3.70601 1.32008e-19) 22774
(0.171133 3.73071 -1.1e-09) 23081
(0.138828 3.68354 -8.8e-09) 22533
(0.146909 3.69576 4.6193e-19) 22655
(0.159666 3.71143 -1.30894e-19) 22838
(0.143292 3.68535 1.00037e-21) 22594
(0.156274 3.70206 4.29e-09) 22777
(0.140268 3.67999 1.1e-08) 22533
(0.166161 3.71457 -2.42e-09) 22899
(0.154991 3.69824 1.1e-09) 22717
(0.170691 3.71635 3.89563e-19) 22900
(0.139356 3.6736 1.1e-09) 22413
(0.142012 3.67798 3.64558e-20) 22474
(0.186065 3.7286 2.21967e-19) 23084
(0.189162 3.73163 -1.1e-08) 23085
(0.164988 3.70738 2.85565e-19) 22839
(0.145333 3.68131 2.36973e-19) 22534
(0.149092 3.68692 -9.54155e-20) 22595
(0.162472 3.70356 8.8e-09) 22778
(0.148982 3.6859 -1.1e-09) 22595
(0.157354 3.69397 1.43072e-19) 22657
(0.168322 3.70707 1.80792e-19) 22840
(0.184106 3.72314 5.5e-09) 23024
(0.181085 3.7194 1.73405e-19) 22963
(0.188488 3.72614 -4.4e-09) 23025
(0.136997 3.66489 4.08479e-19) 22352
(0.195685 3.73164 8.34604e-19) 23086
(0.150697 3.68385 -2.2e-09) 22536
(0.1412 3.67046 1.97502e-19) 22413
(0.182851 3.7188 1.1e-08) 22963
(0.179605 3.71668 4.07e-09) 22903
(0.19435 3.72678 -3.29572e-19) 23026
(0.189446 3.72208 4.4e-09) 22965
(0.148005 3.67667 -6.30354e-20) 22475
(0.169637 3.69977 -1.1e-09) 22720
(0.157776 3.68695 2.00922e-19) 22597
(0.203925 3.73004 7.7e-09) 23088
(0.175444 3.70495 1.88775e-20) 22782
(0.185791 3.71498 6.6e-10) 22904
(0.189399 3.71709 4.4e-09) 22905
(0.135994 3.65299 1.34509e-19) 22232
(0.19444 3.71847 -3.3e-09) 22966
(0.204643 3.72595 -1.93836e-19) 23029
(0.174986 3.69982 -4.55726e-19) 22721
(0.150198 3.67148 -1.76e-09) 22416
(0.180994 3.70375 -1.12118e-19) 22783
(0.159189 3.68113 -2.2e-09) 22538
(0.163925 3.68635 -3.3e-09) 22599
(0.14459 3.6627 1.1e-08) 22294
(0.144003 3.66038 -1.41448e-19) 22294
(0.212301 3.72574 -6.49512e-19) 23030
(0.178282 3.69796 -4.4e-09) 22722
(0.169886 3.69058 5.18152e-19) 22660
(0.187232 3.70556 -5.34886e-19) 22784
(0.20549 3.72013 -3.3e-09) 22969
(0.137297 3.64674 4.4e-09) 22172
(0.159036 3.67483 4.4e-09) 22478
(0.190213 3.70565 -2.62624e-19) 22785
(0.195013 3.70792 -2.2e-09) 22846
(0.145745 3.65792 -2.53e-09) 22294
(0.176847 3.69174 -9.9e-09) 22662
(0.153175 3.66632 -3.3e-09) 22356
(0.161346 3.67619 -6.6e-09) 22478
(0.179827 3.6933 4.4e-09) 22663
(0.140929 3.64946 -4.4e-10) 22173
(0.148302 3.65903 -1.1e-08) 22295
(0.151732 3.66295 6.6e-09) 22296
(0.227723 3.71629 1.04917e-19) 22914
(0.18081 3.68994 3.5926e-19) 22603
(0.195839 3.70259 2.59306e-19) 22787
(0.134128 3.63492 -4.4e-09) 21992
(0.147554 3.65359 -7.7e-09) 22235
(0.156156 3.6627 4.4e-09) 22297
(0.178466 3.68411 3.894e-09) 22542
(0.135493 3.63399 -2.2e-09) 21992
(0.150314 3.65331 -8.34698e-20) 22236
(0.149233 3.64896 -4.4e-09) 22175
(0.165743 3.66706 5.5e-09) 22359
(0.166744 3.66803 -1.89904e-21) 22360
(0.138211 3.63429 2.2e-09) 21993
(0.143048 3.64103 -3.59486e-19) 22054
(0.210519 3.701 -3.3e-09) 22730
(0.233626 3.70493 2.29461e-19) 22796
(0.142059 3.63817 2.2e-09) 22054
(0.136701 3.62942 2.2e-09) 21932
(0.146301 3.64156 -4.4e-09) 22115
(0.1619 3.6582 6.6e-09) 22298
(0.174464 3.66863 -1.79248e-19) 22361
(0.162981 3.6583 7.7e-09) 22299
(0.169138 3.66443 -1.1e-09) 22360
(0.154647 3.64936 -5.5e-09) 22177
(0.176538 3.67028 -9.91066e-20) 22422
(0.187525 3.6789 3.27933e-19) 22485
(0.164091 3.65753 -5.4469e-19) 22239
(0.18692 3.67711 -1.1e-09) 22484
(0.216689 3.69578 5.39e-09) 22672
(0.153249 3.64543 -6.6e-09) 22116
(0.157682 3.65 -5.5e-09) 22177
(0.207434 3.68973 5.5e-09) 22609
(0.147472 3.639 6.27e-09) 22055
(0.159141 3.65028 4.35411e-19) 22178
(0.161896 3.65244 5.71973e-20) 22238
(0.158659 3.64909 6.6e-09) 22178
(0.145278 3.63434 1.1e-09) 21994
(0.238724 3.6947 -7.7e-09) 22677
(0.146608 3.63444 -3.3e-09) 21995
(0.18863 3.67098 -3.3e-09) 22425
(0.138048 3.62301 -5.63777e-20) 21873
(0.177392 3.66155 1.41781e-19) 22302
(0.163271 3.64876 -5.12463e-19) 22179
(0.21085 3.68437 -6.51748e-21) 22550
(0.134662 3.61869 5.10469e-20) 21812
(0.198517 3.67312 1.78629e-19) 22427
(0.18597 3.66433 -4.69217e-19) 22364
(0.139736 3.62254 5.5e-09) 21873
(0.190398 3.66692 3.3e-09) 22365
(0.157258 3.63856 7.7e-09) 22057
(0.148053 3.62911 -4.4e-09) 21935
(0.159127 3.639 2.50769e-19) 22058
(0.163903 3.6439 2.2e-09) 22119
(0.15272 3.63274 1.1e-09) 21996
(0.21648 3.67772 -2.35046e-19) 22491
(0.217826 3.67782 4.4e-09) 22492
(0.193542 3.66306 1.1e-09) 22306
(0.227229 3.67262 -6.6e-09) 22434
(0.16977 3.64622 -1.594e-19) 22120
(0.180831 3.65364 -1.1e-08) 22243
(0.13434 3.61163 -1.1e-09) 21752
(0.221734 3.67715 2.2e-09) 22493
(0.15508 3.63147 -5.5e-09) 21997
(0.172885 3.64643 -2.42e-09) 22121
(0.149125 3.62611 -1.1e-09) 21935
(0.136957 3.6134 3.90651e-19) 21812
(0.218608 3.67336 -5.5e-09) 22432
(0.160507 3.63419 -3.3e-09) 21998
(0.188087 3.65466 -1.41113e-19) 22245
(0.198854 3.66164 -6.6e-09) 22307
(0.191827 3.65493 8.8e-09) 22246
(0.193349 3.65457 -1.6422e-19) 22246
(0.136122 3.60905 -2.2e-09) 21752
(0.214542 3.6654 -4.07e-09) 22371
(0.188188 3.64858 -1.07688e-19) 22185
(0.148701 3.61989 -4.22872e-19) 21875
(0.143223 3.61342 -2.21273e-19) 21814
(0.160087 3.62749 -5.18195e-19) 21938
(0.159889 3.62705 1.1e-09) 21938
(0.180939 3.64117 -4.4e-09) 22063
(0.148148 3.61705 -3.367e-19) 21815
(0.169252 3.6337 -7.7e-09) 22000
(0.160375 3.62603 6.38e-09) 21938
(0.163694 3.62886 -4.4e-09) 21939
(0.16643 3.6313 2.20314e-19) 21999
(0.207324 3.65427 5.7849e-19) 22249
(0.192578 3.64541 -1.1e-09) 22126
(0.174428 3.63347 -1.55174e-19) 22001
(0.151892 3.61704 -6.6e-09) 21816
(0.170616 3.62955 -3.3e-09) 21940
(0.2086 3.65061 -2.57759e-20) 22190
(0.142486 3.60674 -3.3e-09) 21694
(0.177208 3.63073 5.5e-09) 22002
(0.226347 3.64421 -3.3e-09) 22134
(0.135259 3.59994 -1.1e-09) 21632
(0.173767 3.62634 -6.6e-09) 21941
(0.213566 3.64671 1.1e-08) 22131
(0.173381 3.62447 1.82156e-19) 21881
(0.185026 3.63147 1.1e-09) 22004
(0.211161 3.64214 -6.73865e-20) 22130
(0.165937 3.61897 -4.4795e-19) 21879
(0.222013 3.64424 -2.14961e-19) 22133
(0.210185 3.63824 1.1503e-19) 22070
(0.228947 3.63348 -2.50816e-19) 22014
(0.234298 3.6364 3.3e-09) 22076
(0.168696 3.61678 2.2e-09) 21820
(0.190209 3.62763 -3.3e-09) 21945
(0.159151 3.60971 1.71985e-20) 21758
(0.14641 3.60154 3.3e-09) 21635
(0.19525 3.62689 -1.1e-09) 21946
(0.232911 3.63034 -5.5e-09) 22015
(0.240134 3.63187 1.1e-09) 22017
(0.164399 3.61144 8.89083e-20) 21759
(0.201904 3.62848 4.4e-09) 21948
(0.202833 3.62873 2.84799e-19) 21948
(0.177817 3.6173 3.3e-09) 21822
(0.19675 3.62498 -5.1875e-19) 21947
(0.16441 3.60895 -2.2e-09) 21759
(0.183217 3.61584 3.3e-09) 21823
(0.186156 3.61666 -3.3e-09) 21824
(0.191753 3.61708 1.1e-08) 21826
(0.214102 3.62207 2.2e-09) 21891
(0.20599 3.61926 5.5e-09) 21889
(0.165028 3.60303 -2.19892e-19) 21699
(0.169307 3.60425 5.5e-09) 21700
(0.200705 3.61518 8.9749e-20) 21828
(0.183342 3.60856 -1.6213e-19) 21764
(0.194444 3.6121 3.28306e-19) 21766
(0.1874 3.60827 -1.1e-09) 21764
(0.189331 3.60831 3.3e-09) 21765
(0.174575 3.6021 4.4e-09) 21701
(0.163564 3.59687 -3.4007e-19) 21639
(0.232821 3.60506 2.2e-09) 21715
(0.191748 3.60486 4.4e-09) 21706
(0.202163 3.60651 -2.2e-09) 21708
(0.223554 3.61158 -4.4e-09) 21773
(0.232312 3.60045 -7.7e-09) 21655
(0.177129 3.59741 -7.7e-09) 21642
(0.18232 3.5988 -1.1e-09) 21643
(0.196305 3.6028 -1.1e-09) 21707
(0.209002 3.60534 -2.2e-09) 21710
(0.200183 3.60268 3.3e-09) 21708
(0.195659 3.60079 -3.13205e-19) 21646
(0.202828 3.60275 6.01767e-19) 21708
(0.181371 3.59685 -1.1e-09) 21643
(0.22251 3.60598 1.1e-09) 21713
(0.136051 3.58278 -3.3e-09) 21452
(0.138196 3.58348 -4.4e-09) 21453
(0.176761 3.59364 -5.27893e-20) 21582
(0.138171 3.58249 8.38926e-20) 21453
(0.145669 3.58467 -6.27e-09) 21454
(0.186955 3.59453 -1.1e-08) 21584
(0.22012 3.60089 1.1e-09) 21652
(0.198132 3.59614 4.05116e-19) 21587
(0.172241 3.59046 -5.67575e-20) 21521
(0.191237 3.593 -1.1e-09) 21585
(0.209792 3.59401 -4.4e-09) 21590
(0.155355 3.58279 -4.4e-09) 21457
(0.21231 3.59147 -3.4763e-19) 21590
(0.175473 3.58494 2.73718e-19) 21522
(0.201857 3.58856 1.1e-09) 21528
(0.228196 3.5915 1.1e-09) 21594
(0.163983 3.58281 -1.76e-09) 21459
(0.209337 3.58837 8.75027e-20) 21530
(0.162865 3.5822 -6.6e-09) 21459
(0.158112 3.58115 -4.2235e-19) 21457
(0.201417 3.58629 1.47745e-19) 21528
(0.182599 3.58376 -2.2e-09) 21463
(0.190862 3.5843 4.35334e-19) 21465
(0.186572 3.58336 2.2e-09) 21464
(0.197201 3.58435 4.66135e-19) 21467
(0.158975 3.57982 1.95397e-19) 21458
(0.167509 3.58064 -1.1e-09) 21460
(0.197318 3.58146 2.2e-09) 21467
(0.220587 3.58152 -5.5e-09) 21472
(0.215453 3.58098 -3.3e-09) 21471
(0.209587 3.58006 1.1e-08) 21470
(0.183624 3.57791 -2.35046e-19) 21404
(0.205089 3.57896 3.44826e-19) 21409
(0.153 3.57561 4.4e-09) 21396
(0.18982 3.57692 -2.2e-09) 21405
(0.139135 3.57467 -1.97124e-19) 21393
(0.216175 3.57551 3.16878e-19) 21411
(0.179953 3.57456 -9.35e-09) 21403
(0.179881 3.57399 -2.2e-09) 21403
(0.183566 3.57392 4.4e-09) 21404
(0.063827 3.59986 1.4774e-19) 21615
(0.061204 3.62176 -8.8e-09) 21854
(0.0666819 3.60924 1.1e-08) 21736
(0.0680951 3.60509 1.1e-09) 21676
(0.0628822 3.64332 -2.49186e-19) 22095
(0.069045 3.60425 9.06069e-20) 21676
(0.0659516 3.63147 -3.3e-09) 21975
(0.0674454 3.62165 5.61e-09) 21856
(0.0660942 3.63566 -3.19335e-20) 22035
(0.0640241 3.65038 3.3e-09) 22155
(0.063626 3.65795 5.50676e-19) 22275
(0.0704599 3.61968 1.1e-09) 21856
(0.0728516 3.60621 1.1e-09) 21677
(0.0625781 3.67318 -4.57657e-19) 22395
(0.0733104 3.606 -1.87725e-19) 21677
(0.0717427 3.61704 -3.2415e-20) 21797
(0.0649364 3.67122 1.47239e-19) 22395
(0.0658779 3.6676 5.5e-09) 22335
(0.0661358 3.66735 1.71536e-19) 22335
(0.0648593 3.67878 -2.2e-09) 22455
(0.069394 3.65992 3.86514e-19) 22276
(0.0713383 3.64627 -1.1e-09) 22097
(0.079745 3.59932 -2.2e-09) 21619
(0.0678592 3.67643 7.7e-09) 22456
(0.0761395 3.62608 1.48393e-19) 21918
(0.0804543 3.60274 -1.1e-08) 21679
(0.0812635 3.59952 -4.4e-10) 21619
(0.0760972 3.62931 -2.45481e-19) 21918
(0.0769094 3.62518 3.3e-09) 21918
(0.0823875 3.59679 1.1e-08) 21619
(0.0687034 3.68 -7.7e-09) 22516
(0.0752239 3.64161 4.4e-09) 22098
(0.0770632 3.63223 -7.48e-09) 21978
(0.0806868 3.61166 6.6e-09) 21739
(0.0690662 3.70524 2.6617e-19) 22756
(0.0854716 3.60042 -4.4e-09) 21620
(0.0848192 3.60436 -1.1e-09) 21680
(0.0825857 3.61912 3.45826e-20) 21859
(0.0789671 3.643 -1.69568e-19) 22098
(0.087038 3.5973 -2.2e-09) 21620
(0.0853795 3.60813 9.9e-10) 21740
(0.0739318 3.69041 -1.1e-08) 22577
(0.0787391 3.65504 -5.39e-09) 22218
(0.0885015 3.59888 2.2e-09) 21621
(0.0784584 3.65844 2.3981e-20) 22278
(0.078808 3.65595 -4.2383e-19) 22218
(0.0811612 3.64498 -8.48882e-20) 22099
(0.0880093 3.60463 1.1e-09) 21681
(0.0760481 3.68214 4.4e-09) 22518
(0.0863622 3.61546 -9.66677e-21) 21800
(0.0797018 3.65868 -3.3e-09) 22279
(0.0809206 3.65193 -1.1e-09) 22159
(0.0835434 3.64228 -8.05188e-19) 22100
(0.0831663 3.64781 1.11435e-19) 22159
(0.0892806 3.61109 3.3e-09) 21741
(0.0885221 3.61667 2.2813e-20) 21801
(0.0777309 3.6908 1.1e-08) 22638
(0.0885402 3.61939 8.28968e-19) 21861
(0.082581 3.65923 2.2e-09) 22279
(0.0858917 3.63752 3.3e-09) 22040
(0.0757755 3.7156 -2.64388e-19) 22878
(0.0841743 3.65486 -5.5e-09) 22220
(0.0902487 3.61817 -1.14897e-19) 21801
(0.0861165 3.64645 -1.1e-08) 22100
(0.0882956 3.63372 -2.47389e-19) 21981
(0.0888269 3.63274 -3.3e-09) 21981
(0.0777088 3.7192 3.3e-09) 22938
(0.0855044 3.65631 -2.2e-09) 22220
(0.091976 3.61537 -5.91689e-19) 21802
(0.0861877 3.65485 1.1e-09) 22220
(0.0824363 3.68717 -2.53689e-19) 22579
(0.0946661 3.60812 1.26589e-19) 21742