/*--------------------------------*- C++ -*----------------------------------*\
| =========                 |                                                 |
| \\      /  F ield         | OpenFOAM: The Open Source CFD Toolbox           |
|  \\    /   O peration     | Version:  v1906                                 |
|   \\  /    A nd           | Web:      www.OpenFOAM.com                      |
|    \\/     M anipulation  |                                                 |
\*---------------------------------------------------------------------------*/
FoamFile
{
    version     2.0;
    format      ascii;
    class       scalarField;
    location    "2.83/lagrangian/coalCloud1";
    object      T;
}
// * * * * * * * * * * * * * * * * * * * * * * * * * * * * * * * * * * * * * //


53638
(
577.62
582.141
587.506
575.487
582.828
581.946
570.353
584.02
584.335
579.646
582.817
576.13
589.325
579.005
591.192
567.575
581.007
582.068
581.352
565.248
587.745
577.644
591.513
589.319
589.183
588.493
578.477
586.3
573.735
580.458
570.671
586.442
573.16
573.116
593.568
590.705
594.198
572.753
584.3
580.526
575.642
586.038
586.256
587.797
581.134
597.564
585.385
596.526
584.086
588.708
579.24
590.285
589.696
599.623
595.37
577.145
600.649
602.694
587.013
592.892
585.613
594.714
590.064
580.185
596.926
595.192
593.675
586.633
599.321
591.808
580.927
585.74
596.998
607.586
608.721
591.981
590.59
592.876
599.091
589.269
587.631
605.4
583.527
601.249
586.685
591.743
597.058
595.637
592.587
593.938
590.091
597.746
603.63
593.143
590.696
586.737
590.373
581.849
592.417
583.43
594.396
596.633
608.1
596.239
588.145
599.719
582.15
598.657
597.263
604.845
598.472
596.538
604.538
595.915
592.311
593.27
586.255
594.169
595.746
600.514
590.515
609.485
598.813
585.202
593.681
594.673
583.168
596.579
591.196
591.804
596.361
591.555
599.346
595.816
592.992
609.238
597.836
602.076
602.129
612.546
599.439
604.748
595.877
612.113
612.857
613.256
598.581
587.519
618.097
591.399
592.599
590.386
619.123
613.298
579.868
593.124
596.823
586.847
579.516
595.678
592.88
591.158
594.803
611.498
624.007
584.832
614.972
598.242
600.74
603.54
603.364
589.94
621.875
614.354
579.859
592.935
582.767
611.478
609.099
593.123
625.712
599.43
581.122
611.993
602.132
603.318
593.383
600.408
590.387
597.697
611.316
596.91
579.983
615.336
593.478
611.895
585.802
624.283
574.635
607.187
604.573
613.104
615.86
602.237
580.88
614.78
604.651
614.822
603.388
616.074
614.917
592.74
625.807
617.532
620.343
601.064
613.938
593.813
622.242
606.417
584.749
613.274
619.475
618.752
622.546
573.73
594.086
595.217
607.135
589.625
608.429
588.958
596.684
595.418
590.114
593.812
616.264
624.716
629.835
593.93
629.336
600.995
599.004
599.06
621.172
589.698
620.702
627.152
607.806
620.962
593.065
607.516
623.595
611.993
622.779
620.948
592.859
600.139
602.212
585.239
588.982
627.424
624.028
598.706
586.021
624.648
597.086
605.447
635.915
611.328
625.373
574.507
612.926
612.434
606.083
605.85
587.359
620.19
621.758
632.133
623.735
607.24
634.279
595.05
600.223
582.938
614.801
613.645
631.413
607.309
619.078
602.804
616.845
591.731
613.799
615.781
588.173
636.292
624.436
630.154
640.061
639.869
607.621
593.492
629.678
598.482
628.078
619.489
632.547
620.081
622.676
633.96
603.13
598.962
622.063
607.018
598.151
614.386
600.831
603.901
621.716
590.013
630.049
622.24
585.562
626.917
723.665
604.758
620.341
634.815
636.645
628.706
619.566
608.05
625.759
608.654
605.421
624.339
633.319
671.871
645.373
588.923
639.698
627.1
634.38
611.255
613.569
617.361
588.124
606.059
613.836
621.288
632.118
630.734
577.708
609.5
586.034
602.618
593.809
602.137
615.764
622.153
588.509
582.632
613.196
616.582
628.476
645.881
583.008
587.961
626.745
603.433
607.112
587.933
616.8
628.539
627.205
602.225
621.812
707.962
624.642
648.298
598.658
582.4
599.063
619.301
621.321
625.943
600.969
624.439
624.825
595.617
624.163
625.026
602.023
613.994
604.036
611.463
624.874
630.392
587.849
606.466
663.044
614.714
594.979
647.521
649.029
623.222
583.193
612.655
658.309
619.671
604.431
614.364
622.728
602.672
587.885
620.886
660.464
607.093
629.448
615.277
594.082
609.02
623.197
627.717
589.988
608.246
611.738
632.022
673.961
614.444
588.989
612.057
599.807
645.454
611.062
638.857
595.652
611.533
636.8
640.297
585.037
612.917
591.527
611.313
602.418
588.117
618.063
587.155
605.994
656.538
585.783
624.305
624.385
625.568
623.481
645.395
588.165
625.637
596.635
602.052
595.463
619.749
640.108
599.017
612.175
635.573
607.746
606.452
624.746
596.856
631.582
608.026
651.622
594.165
651.388
606.062
589.953
591.832
614.073
627.06
637.973
623.919
576.772
598.666
589.96
590.426
623.624
623.576
598.238
647.637
623.837
601.133
592.936
603.082
636.765
596.426
599.39
609.481
670.867
609.999
585.586
653.812
649.373
653.122
642.925
641.66
640.982
639.983
654.697
656.246
657.815
648.109
649.187
645.611
642.923
655.273
648.501
637.804
647.536
654.594
638.001
645.373
644.99
646.199
648.017
655.929
650.468
647.763
649.552
650.792
650.392
634.168
642.503
651.503
641.878
647.74
644.666
658.751
641.768
644.946
642.793
658.348
656.446
653.027
646.779
635.373
651.212
665.492
652.536
659.949
645.231
636.429
654.364
662.224
641.697
645.792
643.663
641.552
644.377
642.717
642.707
653.923
639.554
654.049
647.365
655.715
623.898
639.207
658.823
651.518
643.365
636.369
636.525
649.6
639.184
635.619
633.043
642.924
668.099
638.317
651.027
635.156
641.781
643.596
638.252
635.271
641.952
640.681
646.887
647.162
626.389
637.152
653.574
681.931
637.693
631.563
638.211
645.473
634.794
645.123
648.099
641.624
645.106
651.587
636.766
640.233
657.566
640.239
641.352
653.708
638.262
641.584
643.036
642.088
633.185
689.659
633.759
648.541
631.286
642.912
643.115
662.474
638.957
637.901
633.636
631.47
636.62
628.249
627.801
626.457
640.671
620.565
653.182
654.4
630.022
660.626
642.676
635.178
627.625
658.086
624.972
634.912
631.406
627.48
653.56
624.885
632.761
652.335
634.534
635.814
626.748
661.247
630.167
632.613
628.731
637.336
637.696
627.193
623.651
639.559
621.551
627.578
638.931
646.986
632.346
633.778
632.517
628.566
646.653
636.133
640.973
650.526
623.605
629.393
657.117
628.334
644.871
647.086
636.831
657.785
644.731
649.044
672.52
625.929
638.705
626.117
614.74
649.828
659.377
672.716
635.275
628.489
636.058
639.702
633.496
634.301
632.23
641.909
647.069
640.036
646.389
619.752
619.366
631.748
639.158
624.486
640.588
624.469
631.768
627.218
654.53
640.653
633.016
647.22
657.322
625.462
636.67
637.349
637.598
641.628
626.673
653.129
627.737
644.064
626.943
628.274
634.733
617.226
632.999
628.303
640.057
623.613
619.823
638.902
635.689
633.298
638.316
628.551
637.907
653.87
627.305
633.977
626.848
625.285
625.831
613.393
630.295
634.756
624.185
624.249
628.269
635.009
637.876
637.874
634.015
631.835
638.706
632.396
635.227
627.037
637.125
618.487
632.048
633.56
591.375
596.089
601.624
608.744
595.41
607.282
593.496
615.479
603.858
620.35
623.608
613.605
610.805
631.477
610.298
603.219
606.604
602.497
606.01
623.841
609.299
617.879
609.659
636.06
611.368
613.317
616.635
621.91
620.105
611.269
636.02
615.792
622.337
605.109
639.1
616.104
615.053
622.067
628.758
615.874
613.156
634.084
635.195
613.879
621.475
632.139
628.938
616.307
646.41
620.405
636.544
631.743
629.872
632.712
614.533
622.923
649.437
623.329
634.275
626.931
646.323
633.982
621.665
616.766
629.371
627.414
660.233
635.904
624.161
633.715
643.128
611.901
627.321
639.906
648.578
638.553
616.425
617.084
633.092
627.948
626.945
629.653
621.525
636.392
608.33
619.504
640.765
618.91
638.993
629.724
632.039
625.187
625.374
619.888
636.796
630.263
619.147
657.156
627.364
627.84
630.122
661.694
645.569
646.959
631.777
621.83
630.095
643.225
632.811
647.833
638.796
640.38
641.392
618.517
638.96
633.366
620.45
631.155
655.192
633.796
624.028
632.809
649.466
631.915
642.814
631.397
626.992
601.502
584.673
652.13
637.046
659.193
639.228
599.888
625.563
637.215
635.526
571.155
638.232
622.601
620.56
653.868
648.591
640.42
629.27
650.706
641.775
647.923
570.732
635.605
643.265
637.888
634.46
622.071
592.266
623.543
614.433
578.538
633.674
624.494
620.337
623.351
614.08
635.622
630.789
647.368
627.208
655.295
660.085
646.325
639.013
630.672
624.355
636.488
591.122
639.846
643.966
623.259
582.94
631.455
570.085
633.623
654.533
651.858
607.372
557.764
643.351
655.742
662.03
637.355
642.117
642.198
635.491
648.785
635.826
641.239
592.859
654.146
645.044
634.384
626.337
634.001
555.561
633.9
629.591
555.142
643.039
658.691
523.986
598.731
646.895
659.01
555.463
658.925
651.185
555.672
616.484
624.806
657.291
560.071
653.456
645.901
567.19
657.172
629.475
598.836
579.838
575.122
632.694
572.832
623.041
534.07
644.423
603.998
642.884
338.283
590.204
634.823
550.664
636.438
633.788
605.795
330.53
659.294
517.5
636.894
638.072
330.319
654.284
330.372
628.543
607.757
355.645
398.714
533.11
366.996
336.558
335.816
330.27
360.004
329.007
429.686
646.126
621.805
339.664
329.535
342.295
367.848
370.526
347.713
338.313
337.088
514.84
555.575
649.133
338.482
353.419
344.699
360.617
350.769
329.814
330.619
356.405
327.483
328.384
442.544
642.999
530.945
329.549
328.259
348.294
335.627
343.935
644.564
327.997
358.218
400.472
342.8
650.448
329.439
339.989
405.115
376.809
468.81
654.561
648.112
622.715
567.258
423.628
332.983
340.309
327.143
344.065
368.349
635.972
507.8
377.604
329.33
341.159
391.295
413.998
337.824
321.715
328.528
351.213
427.727
349.853
340.788
323.71
392.342
320.083
320.547
327.117
423.548
370.165
624.943
533.267
326.034
325.483
327.702
341.956
349.27
325.648
328.264
458.581
320.422
320.425
425.662
539.502
340.836
338.365
374.553
348.465
373.127
386.118
322.507
462.849
363.55
652.87
637.016
539.347
375.307
345.423
325.265
329.902
320.824
327.118
325.022
398.97
329.376
329.374
364.071
375.548
350.665
364.801
344.591
368.868
388.262
351.891
378.225
327.378
319.093
354.849
330.105
387.358
354.96
406.43
327.254
325.023
328.321
387.21
317.996
325.836
340.931
320.321
403
324.974
322.37
321.705
321.665
322.016
641.516
328.997
328.401
324.845
320.477
322.218
386.033
324.402
326.852
320.974
323.901
348.072
355.182
325.593
334.18
327.963
363.42
405.903
317.398
364.693
322.255
377.294
360.005
436.872
321.313
325.938
322.964
322.868
541.675
358.903
350.346
395.135
327.17
324.584
325.287
363.634
323.425
379.218
392.331
449.623
348.422
318.912
325.416
321.988
353.756
344.648
320.861
323.293
324.46
381.992
636.11
342.558
324.814
364.09
345.441
410.159
323.737
327.299
339.236
321.669
318.005
324.743
318.678
318.81
319.047
319.99
329.791
322.498
321.172
346.964
615.545
328.057
326.739
327.39
325.554
325.224
327.909
327.008
363.401
318.781
325.059
334.884
319.179
322.377
322.521
321.105
322.589
363.601
384.176
423.39
326.335
326.741
334.1
462.511
325.718
327.892
320.825
317.591
347.06
318.309
318.376
320.511
318.602
390.092
320.731
323.449
320.744
320.142
351.544
377.683
597.586
328.382
323.2
435.438
363.821
321.206
335.124
320.346
320.315
320.325
320.554
340.875
655.256
506.821
328.286
329.345
402.371
404.112
390.216
316.451
353.298
319.884
321.67
359.54
320.583
362.015
321.732
319.509
333.362
323.332
326.033
321.353
324.664
327.252
341.524
322.601
322.518
319.435
344.568
319.666
352.126
350.532
323.039
344.831
320.518
334.649
320.403
320.077
345.441
649.318
634.416
336.263
347.228
319.458
325.516
319.693
321.301
324.843
317.773
318.202
320.447
416.235
318.325
322.974
321.908
321.743
320.485
319.047
319.42
338.861
338.209
318.29
325.413
365.101
329.851
325.095
434.128
317.121
326.431
317.567
320.37
328.052
354.667
357.834
544.313
328.676
343.988
355.058
326.949
321.777
324.661
321.694
318.695
325.076
317.825
320.458
320.089
320.436
322.93
318.395
320.694
322.942
321.589
320.047
319.376
335.014
335.194
632.085
528.619
372.549
328.992
374.388
336.784
335.977
317.853
406.582
368.976
332.427
317.211
319.906
333.978
318.342
323.731
318.999
319.225
320.209
320.158
332.535
330.772
360.326
557.009
329.179
396.297
379.05
326.937
325.654
326.573
318.957
319.154
317.443
317.77
353.3
318.691
320.543
320.842
320.911
320.233
350.044
319.517
337.937
369.914
320.502
326.404
324.829
353.496
332.975
374.309
327.143
322.79
325.769
317.9
316.829
317.704
319.241
353.104
318.453
321.694
321.537
321.382
320.791
320.493
319.908
330.759
328.071
354.976
342.228
639.385
636.992
642.882
328.396
327.72
383.608
387.91
410.982
383.895
318.005
318.797
316.882
318.191
318.275
318.102
318.448
321.142
322.21
376.158
320
319.777
320.443
320.139
319.556
339.619
326.214
358.44
372.739
462.2
329.023
347.681
426.573
325.948
325.376
318.443
319.686
402.036
319.291
382.93
428.493
319.458
318.412
319.105
318.995
319.379
319.557
357.732
545.679
341.145
319.938
325.839
322.842
317.281
361.152
316.122
316.607
321.639
321.629
318.929
348.823
318.61
323.864
401.957
317.673
368.821
373.055
325.459
325.45
334.159
398.276
323.106
320.322
390.191
332.203
319.35
321.765
398.624
316.51
321.561
324.834
318.666
318.295
318.49
386.323
318.32
318.917
349.28
329.025
327.712
326.357
324.193
317.644
320.995
324.018
317.875
318.41
317.517
316.31
319.106
320.676
374.382
317.607
322.815
319.344
320.626
318.537
318.914
318.711
617.195
327.725
331.029
327.448
327.272
315.255
329.76
323.836
318.044
316.164
324.622
353.52
318.152
321.079
317.695
319.047
316.678
321.956
318.042
320.5
354.181
318.847
351.103
335.349
328.278
344.088
356.207
325.089
326.311
320.024
315.472
315.384
335.714
315.563
321.016
318.309
317.699
320.763
319.728
317.447
318.25
345.004
318.939
406.768
339.201
381.128
583.749
335.657
411.062
322.71
418.239
315.188
344.626
320.254
322.289
321.075
317.498
317.535
339.769
316.91
321.969
317.177
318.526
320.428
321.06
323.947
319.603
624.467
358.692
325.56
357.119
319.411
316.21
324.205
325.068
395.572
325.837
322.096
323.505
379.274
316.248
316.694
320.951
316.716
378.877
317.59
318.801
348.681
319.912
317.133
334.051
337.906
328.326
325.905
324.52
325.729
354.052
314.873
318.246
318.539
316.749
319.531
320.197
318.464
318.225
317.967
319.855
317.215
317.541
341.53
332.825
652.299
345.949
323.028
326.654
322.964
381.666
316.844
317.582
322.885
315.222
315.861
317.904
316.546
317.216
321.912
319.24
331.462
319.161
320.33
321.786
318.504
494.606
327.467
337.539
326.208
326.124
317.284
351.659
316.442
314.631
323.367
314.786
317.317
314.981
323.042
317.494
325.068
336.108
640.615
327.114
334.364
351.584
325.006
342.737
333.548
321.195
314.819
321.86
383.751
315.789
318.333
316.882
341.758
317.97
329.257
366.982
330.892
652.542
327.858
328.055
327.047
326.565
342.845
364.359
318.38
323.536
314.351
316.381
423.42
315.196
383.562
314.964
317.488
315.217
315.211
315.587
318.811
330.401
317.775
316.828
644.419
639.923
324.754
325.601
322.196
323.74
320.56
322.701
315.913
319.316
423.3
316.684
318.752
322.547
316.758
315.001
339.196
315.273
317.031
321.714
316.085
317.81
318.6
319.474
318.369
333.414
325.167
321.849
651.989
327.322
324.363
351.847
316.088
314.23
329.069
333.285
315.097
316.775
320.324
316.96
315.804
320.264
316.374
318.249
643.519
327.976
325.792
324.845
325.962
321.197
344.593
378.569
318.621
408.736
316.306
323.65
324.136
316.828
349.152
321.381
314.432
331.379
316.77
317.751
322.458
319.815
316.432
319.443
318.9
318.503
317.237
364.505
326.097
320.653
329.915
330.984
386.645
321.73
323.501
324.832
346.623
316.817
321.48
323.463
389.753
315.019
315.075
318.458
318.052
316.819
316.162
344.624
360.857
326.41
353.035
340.135
381.289
318.66
313.676
324.107
316.303
314.384
319.074
315.183
370.119
315.391
315.364
315.99
315.979
315.9
316.331
338.694
316.938
638.555
327.643
327.697
327.881
325.682
385.533
319.677
318.016
315.615
317.203
313.808
324.542
322.547
314.828
316.395
315.573
318.045
318.375
316.041
318.6
336.339
316.135
508.597
339.263
318.666
319.993
407.33
314.651
316.748
316.55
316.383
317.236
319.007
315.481
316.152
315.681
316.17
316.525
317.959
318.385
592.712
329.438
327.141
322.865
321.691
348.847
323.642
339.498
382.207
315.621
322.737
339.168
319.721
323.865
383.589
314.298
314.403
315.292
318.314
318.311
316.261
316.465
363.807
317.863
320.143
335.869
625.973
327.49
324.262
328.167
321.514
324.328
414.953
373.112
319.858
322.05
323.31
313.352
315.792
317.889
319.1
314.146
316.304
316.888
318.728
315.563
315.339
314.513
318.236
318.85
316.36
316.051
369.213
325.675
366.98
387.244
312.829
371.419
322.709
317.843
318.861
313.574
313.439
315.638
363.503
314.94
313.874
314.703
313.919
319.908
316.429
315.614
330.814
597.323
338.275
325.483
319.676
325.933
315.57
318.787
325.337
337.992
322.432
313.193
315.906
320.101
316.952
314.109
318.948
316.882
372.119
316.553
318.002
315.965
655.782
665.539
326.725
326.001
321.153
324.991
395.126
365.087
315.086
315.724
318.973
321.861
315.031
319.018
317.208
314.243
316.403
314.768
321.021
645.033
597.527
533.208
322.235
324.518
361.621
325.506
323.255
314.783
312.917
325.889
318.958
321.733
338.281
313.375
313.541
313.681
313.985
314.32
315.358
317.55
316.727
646.416
325.178
368.179
414.861
322.009
321.201
312.493
314.564
316.58
321.412
322.078
317.575
321.881
315.406
315.844
313.738
316.854
316.97
314.35
317.672
317.474
314.565
616.7
324.668
325.384
314.6
315.07
354.018
317.511
325.161
317.119
319.858
328.344
313.274
313.255
319.534
313.218
337.922
313.34
313.777
317.355
343.363
314.961
314.125
314.775
330.476
331.55
354.364
334.595
354.066
320.091
331.447
323.284
312.489
312.661
314.723
406.914
314.776
314.991
322.743
312.982
313.276
315.327
315.7
319.051
313.527
318.542
314.906
314.311
323.781
326.476
323.115
367.827
339.844
327.751
322.844
315.095
312.235
321.102
314.564
314.48
314.742
318.809
314.912
314.948
313.036
317.245
312.96
316.447
314.098
314.735
316.881
325.959
324.964
317.685
320.741
312.044
314.021
321.623
318.159
318.725
316.676
314.945
318.058
313.798
316.617
320.779
345.277
314.093
327.609
331.817
324.752
324.198
312.07
323.262
311.969
320.347
312.115
312.223
313.768
315.032
316.509
315.563
315.542
313.13
365.656
313.313
313.637
313.52
316.478
315.935
313.907
346.493
637.53
324.102
324.607
323.204
315.972
317.38
314.561
314.262
314.994
312.295
312.247
314.547
316.658
315.603
313.518
315.673
319.282
317.868
326.045
325.031
326.445
370.238
364.001
324.692
318.301
357.893
318.58
320.462
375.478
318.662
312.079
314.939
315.959
312.156
312.285
312.427
319.847
313.233
313.53
312.987
325.608
339.072
376.252
340.625
382.314
327.616
320.86
324.358
322.376
321.155
311.647
313.729
314.151
318.105
331.829
311.971
314.253
319.473
311.947
314.309
314.472
313.229
312.332
315.208
317.028
322.641
315.699
313.95
631.997
326.532
375.394
348.855
319.445
321.297
322.764
311.67
311.781
319.08
317.055
314.327
314.202
318.207
311.96
314.855
328.305
312.895
322.258
350.208
640.14
615.894
324.429
313.416
394.744
320.519
318.565
315.936
313.516
313.65
315.654
311.683
311.577
311.595
314.088
318.792
313.614
311.866
311.916
315.925
513.853
334.976
327.332
325.397
320.055
378.843
447.13
316.827
318.119
318.341
320.336
313.464
313.665
316.936
314.701
313.977
314.509
315.619
313.435
551.664
513.956
326.089
324.988
323.417
320.618
322.561
322.68
312.938
321.146
311.432
311.352
313.473
335.805
311.421
311.612
311.899
314.336
313.405
649.696
339.559
323.963
325.31
332.816
370.466
323.779
320.444
318.816
320.175
328.127
324.502
315.526
314.242
317.204
320.657
313.962
318.555
314.222
313.844
311.971
319.837
312.289
312.299
319.692
637.338
324.146
322.317
336.187
323.857
383.07
395.627
312.902
321.787
324.228
326.907
312.812
313.358
337.358
319.586
358.51
310.894
313.381
318.262
311.195
311.397
311.455
324.556
312.605
324.019
331.465
324.811
369.873
321.612
342.165
319.547
321.254
321.595
321.902
322.897
310.957
327.358
314.054
314.046
313.026
318.551
311.186
311.229
317.677
321.82
311.465
638.902
629.064
323.334
357.516
324.464
322.039
324.263
319.877
316.475
324.418
323.839
310.811
322.423
321.345
321.946
313.262
316.308
320.406
310.8
312.949
316.173
313.215
316.673
310.999
311.25
311.116
311.352
314.269
314.95
317.199
312.402
563.777
562.008
558.066
560.326
559.541
570.093
558.449
558.824
567.25
556.946
567.547
560.753
563.257
563.21
561.311
570.545
566.598
571.752
570.844
576.048
568.568
566.205
570.747
575.719
572.035
570.817
571.942
571.269
574.071
572.26
576.138
572.894
581.766
580.171
574.007
570.891
569.407
570.802
582.463
574.745
577.408
580.256
575.134
574.373
572.193
579.598
578.682
579.837
572.527
575.443
575.497
577.895
579.59
582.01
586.517
581.861
592.578
578.232
588.773
579.277
579.274
605.718
557.932
562.668
563.583
559.291
584.956
569.025
578.683
578.7
581.599
584.841
589.453
559.858
606.076
559.219
599.075
588.645
605.898
586.015
588.22
563.339
599.727
559.998
568.326
563.331
587.902
603.725
579.12
575.687
617.62
605.567
562.823
562.925
604.357
606.522
584.484
612.528
563.803
601.882
572.134
571.371
567.798
570.925
605.619
603.482
594.18
606.346
575.396
584.369
591.562
576.038
626.944
568.491
611.971
580.21
566.219
562.553
564.581
567.981
576.105
577.613
610.921
569.153
573.307
608.982
568.445
566.93
565.917
584.624
569.608
594.337
568.162
568.494
568.614
566.885
570.016
593.414
569.205
607.42
574.553
614.423
613.028
614.251
569.967
580.701
580.363
571.112
574.141
596.308
610.719
584.316
579.146
574.643
575.638
581.473
570.649
584.271
574.297
587.969
582.088
569.113
579.595
567.476
591.793
553.9
571.338
573.663
578.258
584.364
586.643
589.734
627.884
583.599
602.766
605.172
572.099
586.563
593.913
573.691
579.813
554.564
574.739
588.556
584.124
576.506
555.394
575.318
581.16
603.038
586.525
556.585
585.581
578.388
580.205
567.688
584.616
624.77
559.143
585.043
607.833
609.03
607.339
552.028
596.385
602.914
593.361
581.281
615.581
580.112
615.263
589.483
610.859
543.589
565.662
609.744
550.453
597.356
563.497
589.863
582.815
595.151
607.892
580.566
592.414
613.15
585.138
584.311
587.056
616.789
610.93
595.296
568.443
613.54
593.302
616.492
606.286
605.056
545.727
608.444
529.859
611.958
576.745
592.271
599.467
576.66
585.405
609.866
596.703
592.01
584.835
522.2
593.631
599.776
603.251
616.534
596.613
591.405
539.957
615.137
585.806
583.441
595.573
622.011
574.887
541.626
609.166
618.052
609.338
511.054
598.145
538.571
591.714
599.159
592.769
609.526
603.463
597.403
542.51
609.813
512.631
581.207
547.136
513.713
541.838
605.19
501.637
633.53
579.433
556.335
595.626
345.714
390.51
516.3
385.072
548.752
398.019
387.752
622.693
452.509
585.658
511.606
514.352
364.334
356.119
419.524
437.377
448.506
600.786
608.69
392.99
596.636
389.048
444.071
422.884
452.187
591.954
595.474
420.863
433.239
448.298
469.06
482.99
605.422
616.796
596.815
424.657
470.875
436.205
420.952
427.812
406.743
390.98
432.455
436.498
349.879
468.525
453.784
615.26
510.705
529.591
365.939
334.803
506.389
402.927
446.952
522.421
447.519
487.376
597.099
521.212
399.646
371.617
394.839
496.539
605.168
345.426
413.748
483.836
393.203
351.559
401.978
408.61
553.51
406.82
357.304
334.993
392.51
588.772
594.407
597.947
599.586
386.862
456.269
477.419
343.573
415.257
429.937
333.89
404.317
413.905
357.371
341.045
332.841
346.106
390.531
460.172
476.343
374.042
388.011
333.995
491.691
352.76
373.108
389.034
357.755
382.254
375.996
443.968
464.636
347.922
396.394
380.363
441.45
446.342
423.135
441.308
370.412
454.685
432.411
403.005
371.026
360.291
411.128
329.147
370.877
439.139
601.698
423.455
415.683
412.51
352.685
474.585
454.053
358.744
428.376
386.166
376.285
346.253
390.801
375.754
399.007
398.753
424.524
449.769
414.065
371.377
435.815
443.228
392.946
488.732
360.61
463.981
606.404
419.491
471.786
449.311
365.604
429.894
398.692
336.812
377.709
330.483
364.088
412.613
402.866
379.296
386.945
432.861
459.877
486.421
466.91
406.289
437.975
337.389
371.743
349.752
568.249
607.317
550.541
514.355
513.031
424.225
444.415
333.147
375.221
395.041
462.915
607.348
370.503
420.494
397.899
389.045
483.308
385.391
456.581
351.25
329.32
373.705
420.188
414.761
338.566
381.575
493.71
336.369
473.935
348.247
396.185
356.514
367.366
413.511
339.903
371.543
404.53
610.896
361.405
391.134
438.271
349.467
433.656
415.257
457.584
331.979
421.546
344.62
420.691
599.221
429.265
427.213
423.996
396.786
375.513
462.054
337.924
383.407
378.018
342.886
329.213
328.935
355.724
414.062
407.377
342.573
365.228
612.966
370.763
356.961
496.964
379.262
373.392
370.138
393.216
461.152
329.15
334.741
330.065
344.887
367.384
398.01
424.599
372.426
523.391
362.561
370.803
440.595
390.034
357.326
460.118
465.59
433.568
408.001
334.775
330.18
466.849
363.782
328.32
342.832
426.005
548.432
422.089
430.726
455.414
461.856
379.413
391.002
327.553
479.486
331.058
328.804
330.342
348.949
328.91
344.491
369.769
328.066
358.543
338.942
349.379
364.137
369.973
387.603
627.433
541.601
414.937
466.75
466.072
330.553
399.551
413.664
329.33
329.491
328.365
332.893
329.77
327.457
334.385
348.68
339.23
357.328
347.287
403.988
391.215
330.752
331.742
331.606
366.185
329.992
333.418
361.23
427.879
330.287
332.672
328.155
335.715
352.9
375.133
395.798
329.446
355.679
334.288
338.948
368.86
381.876
612.149
624.55
437.326
422.385
399.268
423.233
487.992
345.002
384.101
357.252
374.405
329.816
330.524
425.283
340.898
329.343
328.68
328.187
342.344
335.472
347.204
395.135
386.572
342.271
345.689
376.386
394.992
412.245
422.561
393.695
415.953
418.421
414.288
379.114
342.131
353.825
328.667
473.626
330.78
429.212
330.469
328.694
329.844
328.694
450.731
336.266
340.79
359.499
334.004
400.942
355.139
387.844
420.932
385.977
410.38
409.88
456.074
331.584
331.486
328.759
331.59
329.693
331.253
347.73
379.32
332.952
329.788
330.707
350.976
365.643
365.275
327.81
339.56
352.806
371.636
379.752
396.267
347.364
391.516
365.983
373.463
394.334
415.311
539.829
399.415
463.11
352.517
330.386
329.277
329.653
328.331
328.038
350.273
413.104
342.738
357.777
343.81
346.623
363.158
406.799
364.922
368.76
362.322
377.473
576.676
587.801
358.028
380.83
453.984
467.319
355.53
356.191
331.281
392.512
327.908
370.271
339.645
369.79
606.387
534.959
517.954
512.658
404.743
353.985
435.927
431.028
358.632
330.662
329.552
329.227
364.55
328.187
327.911
370.853
327.211
340.151
356.107
372.641
336.848
343.575
394.944
532.486
542.088
539.669
429.596
366.947
398.816
377.733
365.027
331.58
329.939
328.83
333.603
370.392
396.95
437.404
375.205
327.531
349.725
350.041
375.284
372.822
425.303
370.283
399.819
420.696
610.829
526.159
392.245
459.856
459.891
419.895
417.577
327.813
387.725
328.126
328.096
327.338
326.836
394.129
339.895
371.394
427.485
387.448
360.311
393.384
405.5
601.76
437.709
458.047
404.954
330.565
329.149
349.701
386.186
328.371
327.802
326.364
353.04
336.456
358.544
377.305
598.286
515.567
367.498
378.937
392.455
456.443
340.473
347.837
329.724
441.51
329.062
329.06
328.58
358.455
329.311
389.779
327.334
338.305
336.181
342.339
339.562
344.037
355.69
376.34
399.072
601.973
348.059
475.292
465.762
464.434
347.456
347.359
459.816
345.761
330.477
356.474
327.768
327.585
326.459
348.3
352.444
413.262
370.203
496.539
339.917
417.904
442.416
332.482
435.487
408.863
410.965
420.398
335.204
442.956
449.527
366.152
352.314
376.601
369.905
327.59
331.816
326.199
382.113
327.297
362.897
395.877
366.79
602.019
607.409
612.984
381.757
398.914
331.598
423.007
353.522
328.644
329.103
424.947
328.057
381.887
368.087
347.061
354.343
363.97
355.776
377.484
612.212
607.685
548.01
408.074
465.724
396.217
329.65
390.06
356.19
328.19
414.922
329.514
410.152
328.64
328.131
327.993
327.939
327.802
385.969
325.827
352.684
343.82
368.508
348.171
398.354
560.05
332.652
463.322
349.806
404.236
371.187
330.241
337.056
363.112
328.628
343.208
387.275
328.832
346.284
334.302
388.12
346.599
379.336
331.242
370.204
373.391
419.766
624.001
551.105
341.807
364.917
409.599
449.651
391.873
462.9
375.83
456.327
330.948
413.306
336.643
327.969
327.125
328.65
340.73
369.174
410.133
390.785
412.563
362.888
420.076
393.842
433.786
398.027
336.198
327.596
327.097
329.062
326.983
327.075
347.157
343.607
326.418
326.532
326.43
332.29
350.732
362.856
392.863
606.815
558.618
351.209
478.394
395.099
360.14
396.087
326.59
337.088
368.316
328.242
367.33
420.065
327.565
417.194
430.907
361.882
327.345
419.708
382.112
361.192
608.739
553.028
401.936
412.909
332.149
439.657
416.453
440.01
329.417
327.89
326.065
329.694
446.708
327.554
330.542
327.312
332.062
411.401
399.988
606.701
604.108
419.188
347.53
439.524
341.971
330.433
477.189
370.015
368.815
384.096
329.141
328.142
333.768
369.71
326.261
326.394
325.583
330.727
349.093
413.711
336.494
337.532
335.852
387.581
324.19
406.03
443.036
422.343
327.272
328.466
325.392
352.31
356.115
328.605
345.651
374.044
325.638
328.724
341.31
353.312
332.678
355.474
377.302
372.733
609.277
603.276
578.437
378.806
412.409
325.851
453.572
335.87
324.918
326.329
327.343
356.378
325.002
358.195
405.576
343.886
362.053
402.314
587.048
396.361
368.978
428.152
398.765
340.2
329.547
326.526
326.726
326.655
326.595
328.321
327.701
326.603
326.652
326.631
326.398
426.121
325.577
348.791
325.121
354.593
351.428
368.464
333.506
338.956
356.139
364.309
358.604
393.709
407.039
413.163
382.201
610.278
398.856
425.319
417.616
407.115
337.486
377.511
417.483
375.412
402.818
331.08
328.393
326.275
328.145
354.464
326.8
326.607
329.235
330.302
355.331
325.044
343.117
372.734
353.487
525.041
350.638
338.723
330.095
346.931
326.232
328.38
392.641
399.473
325.467
325.553
424.279
344.777
343.408
350.434
390.726
550.836
383.419
407.735
417.785
470.348
452.109
359.856
352.711
402.425
325.376
327.781
329.478
340.008
358.023
349.659
327.936
327.39
326.094
369.87
393.368
326.454
337.092
335.931
367.567
329.412
373.899
391.598
368.522
396.5
535.646
332.321
471.185
437.258
462.823
412.977
353.764
337.963
326.78
325.94
345.43
346.104
348.737
350.475
361.638
557.902
352.94
412.005
364.441
485.454
470.851
373.868
421.558
331.507
327.662
325.147
328.032
407.808
400.578
336.245
354.281
329.392
326.252
337.28
340.276
397.469
334.497
394.042
344.606
355.64
402.909
445.968
366.721
410.48
328.953
372.085
327.634
326.832
325.898
326.337
326.18
324.822
352.125
387.858
335.936
356.586
378.047
361.242
561.812
556.372
373.474
370.166
385.947
355.197
356.055
376.417
328.306