/*--------------------------------*- C++ -*----------------------------------*\
| =========                 |                                                 |
| \\      /  F ield         | OpenFOAM: The Open Source CFD Toolbox           |
|  \\    /   O peration     | Version:  v1906                                 |
|   \\  /    A nd           | Web:      www.OpenFOAM.com                      |
|    \\/     M anipulation  |                                                 |
\*---------------------------------------------------------------------------*/
FoamFile
{
    version     2.0;
    format      ascii;
    class       vectorField;
    location    "2.83/lagrangian/coalCloud1";
    object      U;
}
// * * * * * * * * * * * * * * * * * * * * * * * * * * * * * * * * * * * * * //


53638
(
(0.0228868 0.260532 0)
(-0.0125574 0.299784 0)
(-0.0300144 0.144034 0)
(-0.0420299 0.148126 0)
(0.065155 -0.207891 0)
(0.005478 -0.272529 0)
(0.0891668 0.0341965 0)
(0.0535573 -0.315014 0)
(0.0447631 -0.326703 0)
(0.0392182 -0.338036 0)
(0.0195605 -0.361024 0)
(0.0610678 -0.500884 0)
(0.156987 -0.906655 0)
(0.164923 -1.02569 0)
(0.0208921 -0.474909 0)
(0.155029 -1.01921 0)
(0.0399961 -0.602541 0)
(0.0826041 -0.845774 0)
(0.116617 -1.09659 0)
(0.214698 -1.83935 0)
(0.017558 -0.596698 0)
(0.101909 -1.13587 0)
(0.0140784 -0.627459 0)
(0.112101 -1.36876 0)
(-0.0379057 -0.296973 0)
(0.0273671 -0.784477 0)
(0.0331601 -0.809067 0)
(0.0819195 -1.27552 0)
(0.0389651 -0.859514 0)
(0.0348679 -0.906401 0)
(0.113181 -1.67841 0)
(0.0526431 -1.21543 0)
(0.0726186 -1.43442 0)
(0.0618057 -1.43287 0)
(0.0475882 -1.6529 0)
(-0.00156856 -1.31116 0)
(-0.0154632 -1.11407 0)
(0.0232341 -1.688 0)
(-0.0350054 -0.701484 0)
(0.000230293 -1.37827 0)
(-0.0130514 -1.38793 0)
(-0.0344787 -1.18502 0)
(-0.0543036 -1.46975 0)
(-0.0714177 -1.01625 0)
(-0.0971343 -1.53113 0)
(-0.117751 -1.37297 0)
(-0.113082 -1.28675 0)
(-0.0872813 -0.0487158 0)
(-0.134403 -1.21983 0)
(-0.145871 -1.22799 0)
(-0.118153 -0.603118 0)
(-0.202133 -1.5832 0)
(-0.14985 -0.868956 0)
(-0.235407 -1.70149 0)
(-0.182871 -1.20317 0)
(-0.146297 -0.646092 0)
(-0.266575 -1.49361 0)
(-0.288271 -1.57392 0)
(-0.236371 -1.24754 0)
(-0.194375 -0.888869 0)
(-0.0974327 0.00812237 0)
(-0.188774 -0.744621 0)
(-0.202656 -0.85735 0)
(-0.0976449 0.0149152 0)
(-0.31993 -1.32476 0)
(-0.299512 -0.939283 0)
(-0.271832 -0.751052 0)
(-0.234153 -0.488907 0)
(-0.366869 -0.911817 0)
(-0.282765 -0.567507 0)
(-0.274357 -0.505115 0)
(-0.285263 -0.514962 0)
(-0.22554 -0.294546 0)
(-0.396335 -0.694738 0)
(-0.202233 -0.138662 0)
(-0.292087 -0.419845 0)
(-0.358986 -0.564371 0)
(-0.288409 -0.372238 0)
(-0.419176 -0.623036 0)
(-0.319873 -0.417217 0)
(-0.347033 -0.465004 0)
(-0.405848 -0.541768 0)
(-0.159424 0.0299889 0)
(-0.34156 -0.391399 0)
(-0.374953 -0.37193 0)
(-0.36782 -0.323457 0)
(-0.253916 -0.0715982 0)
(-0.497351 -0.410578 0)
(-0.256923 -0.0491751 0)
(-0.410086 -0.263274 0)
(-0.404111 -0.257601 0)
(-0.293467 -0.0653987 0)
(-0.32034 -0.0656433 0)
(-0.393054 -0.142231 0)
(-0.42912 -0.121592 0)
(-0.304131 0.00724655 0)
(-0.271183 0.0510885 0)
(-0.261277 0.0576865 0)
(-0.380267 -0.0416573 0)
(-0.214388 0.129514 0)
(-0.264962 0.088246 0)
(-0.52038 -0.0640322 0)
(-0.511834 -0.0338723 0)
(-0.39548 0.0395421 0)
(-0.298475 0.106901 0)
(-0.522301 0.0461259 0)
(-0.24242 0.174087 0)
(-0.255244 0.196947 0)
(-0.433466 0.122055 0)
(-0.458856 0.128244 0)
(-0.513409 0.121907 0)
(-0.480994 0.1421 0)
(-0.487982 0.163346 0)
(-0.280935 0.218352 0)
(-0.451711 0.178631 0)
(-0.36446 0.204845 0)
(-0.4753 0.219374 0)
(-0.399831 0.2636 0)
(-0.53641 0.315522 0)
(-0.53311 0.362204 0)
(-0.2335 0.330303 0)
(-0.374338 0.34818 0)
(-0.521102 0.371928 0)
(-0.368329 0.343898 0)
(-0.399082 0.370465 0)
(-0.389365 0.390103 0)
(-0.313045 0.370807 0)
(-0.499432 0.443185 0)
(-0.335204 0.41352 0)
(-0.379112 0.479367 0)
(-0.490549 0.564869 0)
(-0.365373 0.494885 0)
(-0.733225 0.857261 0)
(-0.304259 0.487939 0)
(-0.243855 0.47752 0)
(-0.379248 0.647671 0)
(-0.280539 0.559338 0)
(-0.632219 0.94355 0)
(-0.63493 0.968086 0)
(-0.789296 1.25348 0)
(-0.757801 1.23054 0)
(-0.333002 0.681007 0)
(-0.335072 0.71184 0)
(-0.736311 1.33658 0)
(-0.572115 1.12381 0)
(-0.779665 1.52563 0)
(-0.279437 0.708623 0)
(-0.107515 0.508627 0)
(-0.827548 1.34066 0)
(-0.371015 0.897312 0)
(-0.233392 0.693095 0)
(-0.192508 0.637867 0)
(-0.819349 1.41857 0)
(-0.560063 1.30259 0)
(-0.19971 0.679825 0)
(-0.355787 0.955429 0)
(-0.542541 1.31065 0)
(-0.253017 0.786878 0)
(-0.116773 0.562036 0)
(-0.350311 0.970867 0)
(-0.183493 0.6768 0)
(-0.426573 1.11844 0)
(-0.355527 1.01751 0)
(-0.727901 1.88502 0)
(-0.845029 1.86275 0)
(-0.264829 0.887252 0)
(-0.791067 1.70769 0)
(-0.280486 0.948805 0)
(-0.252962 0.896851 0)
(-0.307504 1.0232 0)
(-0.651318 1.83911 0)
(-0.380566 1.19424 0)
(-0.859435 2.09052 0)
(-0.883225 2.15324 0)
(-0.131017 0.65671 0)
(-0.14789 0.695738 0)
(-0.207785 0.835377 0)
(-0.697021 2.10514 0)
(-0.714956 2.03508 0)
(-0.249506 0.968 0)
(-0.85498 2.31553 0)
(-0.582854 1.87262 0)
(-0.252282 0.986555 0)
(-0.296297 1.12486 0)
(-0.615268 2.00075 0)
(-0.628316 2.04703 0)
(-0.30989 1.15321 0)
(-0.629478 2.08424 0)
(-0.273637 1.07796 0)
(-0.0259003 0.44962 0)
(-0.817981 2.40326 0)
(-0.552647 1.9589 0)
(-0.190938 0.91285 0)
(-0.751193 2.23661 0)
(-0.251514 1.10298 0)
(-0.805516 2.51514 0)
(-0.248983 1.10554 0)
(-0.812816 2.64112 0)
(-0.0232173 0.463948 0)
(-0.782214 2.44097 0)
(-0.76445 2.36707 0)
(-0.280281 1.23592 0)
(-0.841025 2.82143 0)
(-0.345268 1.44799 0)
(-0.132823 0.790722 0)
(-0.727017 2.31432 0)
(-0.360367 1.51595 0)
(-0.724312 2.32903 0)
(-0.737136 2.4147 0)
(-0.820535 2.86526 0)
(-0.818128 2.88274 0)
(-0.33338 1.46871 0)
(-0.79941 2.87939 0)
(-0.818856 2.97091 0)
(-0.847006 3.18378 0)
(-0.270184 1.29302 0)
(-0.8025 2.9044 0)
(-0.273618 1.32089 0)
(-0.761722 2.83142 0)
(-0.720703 2.61681 0)
(-0.256275 1.3087 0)
(-0.772327 3.00796 0)
(-0.810318 3.32836 0)
(-0.798941 3.26818 0)
(-0.806399 3.5409 0)
(0.00293817 0.424755 0)
(-0.309376 1.56757 0)
(-0.496525 2.38141 0)
(-0.403766 2.01113 0)
(-0.276948 1.47109 0)
(-0.78615 3.48609 0)
(-0.200572 1.18705 0)
(-0.524145 2.57299 0)
(-0.471419 2.31769 0)
(-0.220895 1.27777 0)
(-0.260677 1.46949 0)
(-0.681602 2.94366 0)
(-0.773374 3.87308 0)
(-0.739822 3.59515 0)
(-0.494135 2.56589 0)
(-0.733086 3.66675 0)
(-0.504135 2.76195 0)
(-0.294442 1.73072 0)
(-0.223857 1.42069 0)
(-0.741896 4.23911 0)
(-0.231488 1.48321 0)
(-0.713423 3.88219 0)
(-0.719091 4.52843 0)
(-0.34389 2.07084 0)
(-0.668238 3.48725 0)
(-0.47593 2.79072 0)
(-0.276639 1.77527 0)
(-0.708265 4.51089 0)
(-0.715726 4.31925 0)
(-0.657752 3.59387 0)
(-0.691753 4.05984 0)
(-0.223469 1.52785 0)
(-0.462944 2.84775 0)
(-0.528154 2.76515 0)
(-0.190935 1.3988 0)
(-0.179495 1.34119 0)
(-0.656712 3.92588 0)
(-0.660751 4.99873 0)
(-0.504503 2.8103 0)
(-0.182179 1.36602 0)
(-0.642262 3.80137 0)
(-0.257485 1.79025 0)
(-0.661896 3.97662 0)
(-0.62012 5.21964 0)
(-0.66865 4.61117 0)
(-0.656636 4.5017 0)
(-0.0975214 0.982657 0)
(-0.663939 4.57184 0)
(-0.274592 1.98655 0)
(-0.541505 2.94613 0)
(-0.589676 3.46755 0)
(-0.21987 1.69164 0)
(-0.561545 5.62836 0)
(-0.598726 3.83402 0)
(-0.596849 5.1981 0)
(-0.580747 5.46347 0)
(-0.582962 3.54987 0)
(-0.577564 5.34268 0)
(-0.156761 1.39139 0)
(-0.224396 1.79837 0)
(-0.184024 1.53941 0)
(-0.56295 3.50674 0)
(-0.601514 4.01195 0)
(-0.588798 5.15358 0)
(-0.57647 3.6261 0)
(-0.563755 5.53439 0)
(-0.509868 2.99 0)
(-0.602691 4.20495 0)
(0.0166371 0.432152 0)
(-0.560219 3.60164 0)
(-0.59434 4.21415 0)
(-0.229317 1.89348 0)
(-0.409845 6.34558 0)
(-0.570366 5.11056 0)
(-0.551861 5.31561 0)
(-0.443789 6.16895 0)
(-0.531972 5.29312 0)
(-0.545951 3.76161 0)
(0.047404 0.264484 0)
(-0.441252 6.20267 0)
(-0.21052 1.88706 0)
(-0.549913 5.08139 0)
(-0.55177 5.25597 0)
(-0.376805 6.50471 0)
(-0.541077 4.1001 0)
(-0.554828 4.77298 0)
(-0.471107 5.96095 0)
(-0.480317 3.19964 0)
(-0.208495 1.92195 0)
(-0.54521 4.9052 0)
(-0.486103 3.35272 0)
(-0.494877 3.4109 0)
(-0.507136 5.66442 0)
(-0.360122 -1.33064 0)
(-0.512078 3.71928 0)
(-0.419842 6.30346 0)
(-0.204873 1.94145 0)
(-0.498606 5.51547 0)
(-0.521487 5.11018 0)
(-0.172902 1.74122 0)
(-0.511581 4.68787 0)
(-0.0124319 3.9743 0)
(-0.454213 3.33028 0)
(-0.506853 4.78604 0)
(-0.39986 6.2715 0)
(-0.317212 6.78376 0)
(-0.378605 6.4601 0)
(-0.481861 4.31181 0)
(-0.482423 5.52667 0)
(-0.349706 6.63506 0)
(-0.229247 2.41627 0)
(-0.445641 3.50923 0)
(-0.474176 5.20176 0)
(-0.42472 5.93294 0)
(-0.141071 7.51058 0)
(-0.227846 7.19588 0)
(-0.0735624 1.17109 0)
(-0.331601 6.65364 0)
(-0.326074 6.73882 0)
(-0.395941 6.08577 0)
(-0.440823 3.96392 0)
(-0.456597 4.5493 0)
(-0.385831 6.30141 0)
(-0.159242 1.92276 0)
(-0.456218 4.76463 0)
(-0.382653 6.25996 0)
(-0.355689 6.46968 0)
(-0.309717 6.77914 0)
(-0.388831 5.97595 0)
(-0.140229 1.82457 0)
(-0.430882 5.44227 0)
(-0.265725 3.09555 0)
(-0.176687 2.25019 0)
(-0.147568 1.94067 0)
(-0.413822 3.9443 0)
(-0.427749 4.83791 0)
(-0.418729 5.25218 0)
(0.0328047 0.404558 0)
(-0.116684 1.66832 0)
(-0.410013 4.14211 0)
(-0.407674 4.19124 0)
(-0.387115 5.7655 0)
(-0.156743 7.57284 0)
(-0.1763 2.26162 0)
(-0.146084 2.02199 0)
(-0.264278 7.02458 0)
(-0.173947 2.37146 0)
(-0.380079 3.77444 0)
(-0.082123 1.42743 0)
(-0.384764 5.83382 0)
(-0.294428 6.79349 0)
(-0.328479 6.38957 0)
(-0.382798 4.05507 0)
(-0.316503 6.5658 0)
(-0.0140983 5.27415 0)
(-0.259774 7.02115 0)
(-0.140743 7.69151 0)
(-0.142693 2.15917 0)
(-0.00645396 0.799518 0)
(-0.34351 3.44418 0)
(-0.36891 4.61076 0)
(-0.367673 4.772 0)
(-0.351532 5.78568 0)
(-0.382596 5.24557 0)
(-0.361456 4.9574 0)
(-0.354812 5.62276 0)
(0.0111605 0.657753 0)
(-0.27853 6.79274 0)
(-0.270474 6.84931 0)
(-0.337902 3.61424 0)
(-0.366006 4.94725 0)
(-0.363211 4.33 0)
(-0.351437 5.78812 0)
(-0.339295 5.67003 0)
(-0.251521 6.929 0)
(-0.138925 2.25576 0)
(-0.351261 5.60385 0)
(-0.116297 7.81806 0)
(-0.299865 6.4348 0)
(-0.06979 1.5511 0)
(-0.149343 7.64676 0)
(-0.143946 7.67399 0)
(-0.318767 5.6769 0)
(-0.0270536 1.11291 0)
(-0.331989 4.93464 0)
(-0.0907834 8.01106 0)
(-0.250874 6.7566 0)
(-0.318406 4.50398 0)
(-0.31367 5.14009 0)
(-0.294168 5.74107 0)
(-0.297852 3.79566 0)
(-0.0904935 1.95002 0)
(-0.238949 6.86511 0)
(-0.0771666 8.10106 0)
(-0.30112 4.07931 0)
(-0.261275 6.27074 0)
(-0.245446 6.75528 0)
(-0.10098 2.16978 0)
(-0.300025 5.68623 0)
(-0.226383 6.9188 0)
(-0.260605 6.23688 0)
(-0.287915 3.70604 0)
(-0.272333 6.20551 0)
(-0.240865 6.66821 0)
(-0.178811 7.30596 0)
(-0.0565134 8.25026 0)
(-0.228973 6.78856 0)
(-0.275824 3.69377 0)
(-0.28089 4.48518 0)
(-0.282611 4.30109 0)
(-0.0975087 7.98228 0)
(-0.261167 5.92524 0)
(-0.11956 7.80117 0)
(-0.111161 2.62181 0)
(-0.249995 6.06822 0)
(-0.153399 7.41896 0)
(-0.0917181 8.02131 0)
(-0.042078 1.62852 0)
(-0.251594 5.24488 0)
(-0.234683 3.35996 0)
(-0.211473 6.5998 0)
(-0.256111 5.1879 0)
(-0.0180373 1.32115 0)
(-0.235142 4.96109 0)
(-0.0556371 1.93474 0)
(-0.233708 5.92403 0)
(-0.0875691 7.9301 0)
(-0.0535684 1.90822 0)
(-0.188979 6.69534 0)
(-0.143974 7.44551 0)
(-0.200079 6.29743 0)
(-0.200067 6.13468 0)
(-0.0679125 8.19954 0)
(0.0130496 0.940141 0)
(-0.144905 7.2939 0)
(-0.22996 5.41263 0)
(-0.209679 6.17502 0)
(-0.063491 2.33721 0)
(-0.16214 6.99674 0)
(-0.119325 7.44644 0)
(-0.225158 4.35371 0)
(-0.152435 7.11371 0)
(-0.0995928 7.78341 0)
(-0.155576 3.27123 0)
(-0.209388 4.33864 0)
(-0.134134 7.29165 0)
(-0.214449 4.27123 0)
(-0.101087 7.74496 0)
(-0.207168 5.07581 0)
(-0.0587968 8.16637 0)
(-0.0527585 2.33029 0)
(-0.0718708 7.90094 0)
(-0.194615 4.97409 0)
(-0.0546805 2.47597 0)
(-0.0210949 1.7798 0)
(-0.179999 5.48429 0)
(-0.142951 6.53236 0)
(-0.0749299 7.93965 0)
(-0.148683 6.33406 0)
(-0.0442896 2.26998 0)
(-0.189882 4.47334 0)
(0.0413893 0.606388 0)
(-0.039039 2.26989 0)
(-0.14733 6.22903 0)
(-0.147048 6.28505 0)
(-0.179815 3.86173 0)
(-0.052361 8.23803 0)
(-0.141364 6.30316 0)
(-0.0427247 2.60549 0)
(-0.0107352 1.71563 0)
(-0.165731 5.97252 0)
(-0.055954 8.16393 0)
(0.00407864 1.46456 0)
(-0.17073 4.01011 0)
(-0.126047 6.93021 0)
(-0.0278406 8.48064 0)
(-0.133021 6.53005 0)
(-0.0324548 2.42608 0)
(-1.42248 1.57829 0)
(-1.38923 1.78076 0)
(-1.37402 1.56831 0)
(-1.37274 1.55741 0)
(-1.35247 2.14424 0)
(-1.33134 2.32279 0)
(-1.34925 2.14555 0)
(-1.32737 2.28585 0)
(-1.348 1.99847 0)
(-1.34241 2.02434 0)
(-1.34157 2.03774 0)
(-1.19654 2.90244 0)
(-1.30971 1.83715 0)
(-1.30916 2.16124 0)
(-1.25178 2.64561 0)
(-1.29421 2.05704 0)
(-1.26962 2.5398 0)
(-1.29172 1.92786 0)
(-1.20588 2.87441 0)
(-1.26968 2.50653 0)
(-1.17652 3.01293 0)
(-1.2771 1.8966 0)
(-1.28004 2.01763 0)
(-1.03376 3.44877 0)
(-0.995589 3.52535 0)
(-1.20501 2.87523 0)
(-1.27401 2.17063 0)
(-1.26864 2.32674 0)
(-1.21723 2.80447 0)
(-1.26532 2.33095 0)
(-1.24464 2.63916 0)
(-1.18188 2.99861 0)
(-1.04492 3.44211 0)
(-1.07837 3.37616 0)
(-1.00151 3.55874 0)
(-1.2563 1.79721 0)
(-0.9114 3.74139 0)
(-1.25778 2.39562 0)
(-1.2609 2.00058 0)
(-1.05734 3.4445 0)
(-1.07458 3.37801 0)
(-0.922934 3.75587 0)
(-0.979111 3.64228 0)
(-1.24798 2.31976 0)
(-1.15841 3.11731 0)
(-1.21153 2.73021 0)
(-0.791854 4.03973 0)
(-1.10151 3.31922 0)
(-1.00116 3.62729 0)
(-0.977213 3.69204 0)
(-1.22193 1.74468 0)
(-0.910886 3.85716 0)
(-0.780314 4.10299 0)
(-1.10546 3.32737 0)
(-1.22172 2.45001 0)
(-1.05071 3.52499 0)
(-1.19639 2.80198 0)
(-1.1714 2.98201 0)
(-1.22381 2.19947 0)
(-1.2191 2.17724 0)
(-0.675714 4.31483 0)
(-1.07021 3.47662 0)
(-1.11932 3.24016 0)
(-0.981825 3.74295 0)
(-0.766514 4.19044 0)
(-1.20059 1.82303 0)
(-1.18258 2.8328 0)
(-0.934321 3.89136 0)
(-0.889366 4.00073 0)
(-1.20267 2.28189 0)
(-1.07371 3.47867 0)
(-1.19765 2.5994 0)
(-1.15894 2.96321 0)
(-1.04553 3.58188 0)
(-1.19738 2.02755 0)
(-1.20278 2.38482 0)
(-1.18986 2.56295 0)
(-0.416086 4.88341 0)
(-1.02886 3.65321 0)
(-0.871464 4.0921 0)
(-1.1566 1.66171 0)
(-1.18185 2.38839 0)
(-1.16258 2.78564 0)
(-1.04071 3.61193 0)
(-1.15112 1.74532 0)
(-1.16778 2.53505 0)
(-1.15969 2.49429 0)
(-1.10393 3.22354 0)
(-1.09839 3.26288 0)
(-1.15198 1.89288 0)
(-1.1588 2.17632 0)
(-0.671368 4.61045 0)
(-0.304082 5.24235 0)
(-1.1512 2.12851 0)
(-1.13275 1.8153 0)
(-1.14849 2.35856 0)
(-1.10881 3.10143 0)
(-1.04595 3.57585 0)
(-1.10206 3.15112 0)
(-1.06782 3.40559 0)
(-1.13214 2.77841 0)
(-1.02209 3.67128 0)
(-0.92244 4.06529 0)
(-1.10051 3.18442 0)
(-0.937028 4.0273 0)
(-0.573991 4.88257 0)
(-1.12793 2.72256 0)
(-1.11652 2.92946 0)
(-0.697427 4.66899 0)
(-1.13479 2.43304 0)
(-1.10811 3.00203 0)
(-1.09442 3.13136 0)
(-1.10688 2.98639 0)
(-1.1297 2.3123 0)
(-0.21016 5.5357 0)
(-1.1251 2.38897 0)
(-0.897567 4.18362 0)
(-1.10494 1.90589 0)
(-0.99504 3.78247 0)
(-1.07398 3.22313 0)
(-0.633498 4.89951 0)
(-1.08541 1.72287 0)
(-0.796901 4.5299 0)
(-0.924626 4.11463 0)
(-1.1 2.01099 0)
(-0.880614 4.27332 0)
(-1.09311 2.94418 0)
(-1.10375 2.47857 0)
(-1.08451 3.04008 0)
(-1.05748 3.27886 0)
(-1.09982 2.72833 0)
(-0.556906 5.12908 0)
(-0.537594 5.1721 0)
(-0.839981 4.44645 0)
(-0.389282 5.55165 0)
(-1.01822 3.55887 0)
(-0.950706 3.98903 0)
(-1.06205 1.6716 0)
(-0.477867 5.31248 0)
(-1.08263 2.86011 0)
(-1.00241 3.68322 0)
(-1.08636 2.55515 0)
(-1.06756 1.84006 0)
(-0.521066 5.26036 0)
(-1.06141 3.13798 0)
(-0.882073 4.299 0)
(-0.757527 4.71577 0)
(-0.841682 4.4558 0)
(-0.823315 4.52367 0)
(-1.04996 1.78656 0)
(-0.557736 5.28049 0)
(-0.868683 4.36268 0)
(-1.06287 2.55527 0)
(-1.05613 2.23605 0)
(-1.03166 3.17151 0)
(-1.03082 3.16424 0)
(-0.92274 4.10097 0)
(-1.05985 2.51838 0)
(-0.988384 3.6147 0)
(-1.03647 3.17401 0)
(-1.02293 3.33514 0)
(-1.00185 3.48555 0)
(-0.648272 5.106 0)
(-0.814202 4.58431 0)
(-0.953967 3.85591 0)
(-1.03962 2.75138 0)
(-0.975986 3.68784 0)
(-0.627327 5.19525 0)
(-1.02386 2.22456 0)
(-0.914495 4.03481 0)
(-0.379194 5.91682 0)
(-1.01097 1.72718 0)
(-0.941927 3.86965 0)
(-0.54661 5.47611 0)
(-0.939559 3.86273 0)
(-0.8422 4.41355 0)
(-0.579583 5.40282 0)
(-0.965892 3.53325 0)
(-0.433746 5.79937 0)
(-0.587626 5.40462 0)
(-0.33106 6.15256 0)
(-0.247182 6.34426 0)
(-0.951401 3.66991 0)
(-0.790961 4.66447 0)
(-0.983455 3.1843 0)
(-1.00493 2.44885 0)
(-0.722967 4.94242 0)
(-0.267371 6.34828 0)
(-0.161217 6.54262 0)
(-0.951311 3.48944 0)
(-0.676981 5.16127 0)
(-0.662871 5.19958 0)
(-0.870419 4.16747 0)
(-0.723364 4.9714 0)
(-0.943261 3.50058 0)
(-0.830646 4.42284 0)
(-0.794732 4.58862 0)
(-0.73704 4.86697 0)
(-0.516051 5.74114 0)
(-0.597706 5.46634 0)
(-0.930399 3.54493 0)
(-0.908694 3.77567 0)
(-0.660765 5.24352 0)
(-0.799692 4.50825 0)
(-0.721166 4.98685 0)
(-0.761895 4.7149 0)
(-0.76047 4.77635 0)
(-0.855465 4.08595 0)
(-0.91076 3.49904 0)
(-0.24884 6.67689 0)
(-0.713718 4.95244 0)
(-0.624651 5.39713 0)
(-0.378552 6.24718 0)
(-0.249527 6.72938 0)
(-0.82795 4.24019 0)
(-0.780377 4.52648 0)
(-0.670064 5.17466 0)
(-0.546093 5.7144 0)
(-0.627058 5.36711 0)
(-0.67994 5.14531 0)
(-0.581506 5.54007 0)
(-0.792091 4.46961 0)
(-0.386255 6.26733 0)
(-0.927917 1.78624 0)
(-0.929936 1.93998 0)
(-0.807655 4.26637 0)
(-0.931015 1.91913 0)
(-0.921125 2.45736 0)
(-0.739334 4.77365 0)
(-0.409037 6.22881 0)
(-0.645875 5.30337 0)
(-0.841333 4.01472 0)
(-0.68607 5.02583 0)
(-0.515797 5.86391 0)
(-0.883967 3.08165 0)
(-0.481375 6.00536 0)
(-0.793568 4.23624 0)
(-0.579988 5.56739 0)
(-0.291301 6.68646 0)
(-0.853643 3.58986 0)
(-0.510185 5.89738 0)
(-0.857225 3.52451 0)
(-0.875263 3.23811 0)
(-0.589301 5.54647 0)
(-0.748783 4.61922 0)
(-0.674028 5.05495 0)
(-0.700121 4.85465 0)
(-0.624569 5.3604 0)
(-0.867071 3.294 0)
(-0.825668 3.80827 0)
(-0.606139 5.40667 0)
(-0.374465 6.45818 0)
(-0.428334 6.24716 0)
(-0.489642 5.9894 0)
(-0.708947 4.72953 0)
(-0.525297 5.80644 0)
(-0.86124 2.95034 0)
(-0.654023 5.07035 0)
(-0.887445 2.00233 0)
(-0.41089 6.33221 0)
(-0.735859 4.53406 0)
(-0.720853 4.55361 0)
(-0.693388 4.75758 0)
(-0.188118 -6.34233 0)
(-0.232224 -6.40124 0)
(-0.305035 -5.57017 0)
(-0.335482 -5.30866 0)
(-0.36109 -5.65726 0)
(-0.351011 -5.16032 0)
(-0.386271 -5.29307 0)
(-0.40696 -5.07046 0)
(-0.422416 -5.13474 0)
(-0.468298 -5.06823 0)
(-0.497394 -4.96174 0)
(-0.463436 -4.59935 0)
(-0.443497 -4.4747 0)
(-0.554857 -4.75069 0)
(-0.451803 -4.40505 0)
(-0.458576 -4.52169 0)
(-0.561194 -4.59137 0)
(-0.56647 -4.51085 0)
(-0.576095 -4.46079 0)
(-0.621766 -4.33228 0)
(-0.624062 -4.04993 0)
(-0.610756 -3.98203 0)
(-0.539093 -3.55918 0)
(-0.712768 -3.75556 0)
(-0.606778 -3.64067 0)
(-0.574413 -3.38843 0)
(-0.57926 -3.29764 0)
(-0.637374 -3.5299 0)
(-0.631026 -3.49022 0)
(-0.576843 -3.21522 0)
(-0.748914 -3.56396 0)
(-0.66948 -3.49415 0)
(-0.673299 -3.33613 0)
(-0.615772 -3.246 0)
(-0.877641 -3.02 0)
(-0.652346 -2.7409 0)
(-0.66055 -2.77524 0)
(-0.708409 -2.81171 0)
(-0.77231 -2.87501 0)
(-0.660533 -2.58658 0)
(-0.68652 -2.66333 0)
(-0.907617 -2.7043 0)
(-0.839252 -2.66296 0)
(-0.688014 -2.39901 0)
(-0.829334 -2.73694 0)
(-0.839168 -2.66853 0)
(-0.822665 -2.57353 0)
(-0.71289 -2.37727 0)
(-0.93808 -2.46658 0)
(-0.749815 -2.40838 0)
(-0.874255 -2.49575 0)
(-0.855811 -2.48688 0)
(-0.849749 -2.33484 0)
(-0.875637 -2.27949 0)
(-0.764919 -2.14866 0)
(-0.790701 -2.13518 0)
(-1.01496 -2.12436 0)
(-0.804752 -2.10089 0)
(-0.924926 -2.17283 0)
(-0.862104 -2.14169 0)
(-1.0813 -1.99725 0)
(-0.928601 -2.06514 0)
(-0.822253 -1.93008 0)
(-0.900495 -2.02871 0)
(-0.881485 -1.91802 0)
(-0.882325 -1.88248 0)
(-1.16194 -1.63193 0)
(-0.959818 -1.89069 0)
(-0.833264 -1.76787 0)
(-0.960747 -1.85042 0)
(-1.06653 -1.75514 0)
(-0.820712 -1.59457 0)
(-0.924286 -1.63599 0)
(-1.00768 -1.59553 0)
(-1.18492 -1.41054 0)
(-1.03054 -1.53395 0)
(-0.945718 -1.56144 0)
(-0.857718 -1.44218 0)
(-0.985959 -1.49357 0)
(-0.938634 -1.46975 0)
(-0.957128 -1.47833 0)
(-0.988496 -1.44844 0)
(-0.90249 -1.37696 0)
(-1.10395 -1.41309 0)
(-0.835023 -1.28777 0)
(-0.9033 -1.33277 0)
(-1.09049 -1.32997 0)
(-0.877553 -1.26402 0)
(-1.0687 -1.30579 0)
(-0.963943 -1.28092 0)
(-0.990763 -1.24541 0)
(-0.903415 -1.18475 0)
(-0.918421 -1.18329 0)
(-0.91487 -1.17792 0)
(-1.04693 -1.16804 0)
(-0.969538 -1.12784 0)
(-0.878787 -1.04816 0)
(-1.25687 -0.942496 0)
(-1.00303 -1.09588 0)
(-0.984002 -1.06716 0)
(-0.997125 -1.00403 0)
(-1.3142 -0.817263 0)
(-1.30758 -0.837422 0)
(-1.20013 -0.868997 0)
(-1.13743 -0.931574 0)
(-0.919367 -0.819096 0)
(-1.13283 -0.909582 0)
(-1.23247 -1.30448 0)
(-1.15137 -0.817632 0)
(-1.28321 -0.720149 0)
(-1.1304 -0.706043 0)
(-1.1595 -0.68995 0)
(-1.2739 -0.626906 0)
(-0.862969 -0.98945 0)
(-1.14632 -0.611391 0)
(-1.11998 -0.583946 0)
(-1.02429 -0.564416 0)
(-1.11148 -0.572211 0)
(-1.32829 -0.442387 0)
(-1.12626 -0.544085 0)
(-0.983515 -0.494601 0)
(-1.05435 -0.435662 0)
(-1.28605 -0.392532 0)
(-1.11895 -0.446036 0)
(-1.36777 -0.347847 0)
(-1.12554 -0.428429 0)
(-1.02875 -0.357964 0)
(-0.44826 -5.35269 0)
(-0.031486 -7.97251 0)
(-1.32347 -0.267433 0)
(-1.12531 -0.296245 0)
(-1.38812 -0.179798 0)
(-1.20065 -0.283514 0)
(-0.497793 -5.04544 0)
(-1.19957 -0.251638 0)
(-1.2646 -0.232198 0)
(-1.11779 -0.214776 0)
(-0.0596221 -7.74813 0)
(-1.15993 -0.214367 0)
(-0.966712 -0.325421 0)
(-1.06053 -0.202427 0)
(-1.34499 -0.134143 0)
(-1.29124 -0.134647 0)
(-1.19513 -0.103741 0)
(-1.07874 -0.106433 0)
(-1.30777 -0.0608492 0)
(-1.21448 -0.0731815 0)
(-1.37199 -0.0272576 0)
(0.0289191 -8.43908 0)
(-1.14597 -0.0211425 0)
(-1.25457 0.00212612 0)
(-1.22257 -0.0175063 0)
(-0.955099 -0.312899 0)
(-0.919583 -0.493335 0)
(-0.281673 -6.41426 0)
(-1.10455 0.0140943 0)
(-1.04125 0.0538566 0)
(-0.0660765 -7.87187 0)
(-1.13166 0.0755257 0)
(-1.02844 0.0943587 0)
(-0.946356 -0.309951 0)
(-0.976681 -0.132154 0)
(-0.594937 -4.51977 0)
(-1.16705 0.120625 0)
(-1.12819 0.125201 0)
(-1.27429 0.166476 0)
(-1.03714 0.178679 0)
(-1.3674 0.195872 0)
(-1.41497 0.273186 0)
(-1.29621 0.221115 0)
(-1.20078 0.244393 0)
(-1.08839 0.254081 0)
(-1.20994 0.242615 0)
(-1.22145 0.260298 0)
(-0.33357 -6.1923 0)
(-0.726988 -3.87509 0)
(-1.26803 0.366045 0)
(-0.995899 0.134452 0)
(-0.0210523 -8.47878 0)
(-1.18993 0.371663 0)
(-0.00853339 -8.53826 0)
(-1.18834 0.419078 0)
(-1.39985 0.450368 0)
(-1.37656 0.452224 0)
(-0.49451 -5.18644 0)
(0.165634 -10.0242 0)
(-1.4768 0.471051 0)
(-1.41303 0.493556 0)
(-1.47385 0.510748 0)
(-1.32292 0.480834 0)
(-1.25299 0.518087 0)
(-1.36553 0.503321 0)
(-1.17208 0.533909 0)
(-1.34232 0.547718 0)
(-1.17276 0.542874 0)
(-1.30804 0.534232 0)
(-0.282539 -6.61537 0)
(-1.37424 0.583725 0)
(-1.47336 0.177189 0)
(-1.20348 0.596504 0)
(-1.16607 0.588695 0)
(-1.15142 0.606237 0)
(0.231925 -10.9575 0)
(-1.21682 0.600573 0)
(-1.0951 0.619432 0)
(0.190674 -10.5462 0)
(-1.27322 0.620117 0)
(-1.44566 0.636972 0)
(0.314787 -11.6463 0)
(-0.394949 -5.87803 0)
(-1.33239 0.653268 0)
(-1.43305 0.69111 0)
(0.168183 -10.3546 0)
(-1.44371 0.708149 0)
(-1.3786 0.71104 0)
(0.162295 -10.3581 0)
(-0.477586 -5.39972 0)
(-1.0499 0.739913 0)
(-1.43497 0.728756 0)
(0.16385 -10.5066 0)
(-1.39946 0.737822 0)
(-1.30648 0.749067 0)
(0.0375048 -9.30479 0)
(-1.43796 0.762109 0)
(-1.30077 0.764795 0)
(-0.271329 -6.85154 0)
(-0.00634078 -9.00578 0)
(-0.158377 -7.61843 0)
(-1.2913 0.814003 0)
(-0.0799744 -8.36896 0)
(-1.0247 0.728719 0)
(0.414328 -14.0784 0)
(-1.4102 0.827769 0)
(-0.475435 -5.40378 0)
(-1.32105 0.92126 0)
(0.482045 -15.3713 0)
(-0.281766 -6.78523 0)
(-1.31227 0.921559 0)
(0.275763 -12.2826 0)
(-1.25859 0.941214 0)
(-1.15331 0.964541 0)
(-0.352162 -6.28531 0)
(0.498283 -15.9574 0)
(-1.45947 0.934429 0)
(0.425361 -14.6527 0)
(-1.21289 0.980342 0)
(-1.21209 0.984333 0)
(0.508479 -16.8039 0)
(-1.40311 0.970678 0)
(0.486553 -15.5871 0)
(-1.20261 0.982498 0)
(-0.364964 -6.20655 0)
(0.521917 -16.7363 0)
(0.538106 -17.0836 0)
(0.191892 -11.2602 0)
(0.514862 -16.1865 0)
(0.52123 -17.0172 0)
(0.524892 -17.407 0)
(0.500675 -15.8392 0)
(0.507543 -15.9926 0)
(0.48313 -17.2069 0)
(0.540975 -17.2145 0)
(-1.40417 0.979076 0)
(-0.797779 -3.48657 0)
(0.475272 -15.0173 0)
(0.490535 -16.5097 0)
(0.523714 -16.8304 0)
(0.530281 -16.9135 0)
(0.553946 -17.7091 0)
(0.510972 -16.0536 0)
(0.521471 -16.8785 0)
(0.530351 -17.74 0)
(0.397804 -14.5506 0)
(0.15347 -10.8871 0)
(-1.05623 -2.21066 0)
(0.527736 -18.1459 0)
(0.541516 -18.0955 0)
(0.525899 -18.3747 0)
(0.521183 -16.4724 0)
(0.531641 -18.1659 0)
(0.519128 -16.8748 0)
(0.524804 -17.355 0)
(0.527533 -16.5577 0)
(0.447047 -18.625 0)
(0.475351 -19.1258 0)
(0.528275 -18.8183 0)
(-1.2741 1.08345 0)
(0.284997 -12.6655 0)
(0.502299 -16.3348 0)
(0.481021 -18.6819 0)
(0.536272 -18.4464 0)
(0.508547 -19.4198 0)
(0.52458 -19.6659 0)
(-1.29329 1.09012 0)
(0.480247 -17.3705 0)
(0.541103 -17.1224 0)
(0.559031 -18.8979 0)
(0.516909 -19.8624 0)
(-1.37632 1.07526 0)
(0.485814 -15.6392 0)
(0.521749 -18.2509 0)
(0.551839 -18.4198 0)
(0.560272 -19.0359 0)
(0.493771 -18.145 0)
(-1.40827 1.07114 0)
(-1.3489 1.08549 0)
(-1.00346 0.738237 0)
(0.109786 -10.517 0)
(0.519098 -17.7365 0)
(0.517523 -18.1084 0)
(0.525813 -18.1584 0)
(0.421332 -20.4145 0)
(0.512197 -19.9656 0)
(0.510509 -20.5319 0)
(-0.991701 0.627962 0)
(0.431223 -15.95 0)
(0.524924 -16.5861 0)
(0.51066 -17.1662 0)
(0.523864 -17.4798 0)
(0.5329 -17.7323 0)
(0.531496 -17.902 0)
(0.517209 -19.4787 0)
(0.209698 -21.0388 0)
(0.463105 -20.0095 0)
(0.538494 -18.822 0)
(0.527246 -18.47 0)
(0.523512 -19.7423 0)
(0.496519 -15.7631 0)
(0.335524 -18.5962 0)
(0.534547 -17.8254 0)
(0.169785 -20.9092 0)
(0.183742 -21.1578 0)
(0.434227 -19.9475 0)
(0.514174 -19.4182 0)
(0.505582 -20.6011 0)
(-1.16389 1.12885 0)
(0.265255 -12.4924 0)
(0.426349 -16.2529 0)
(0.401853 -18.5259 0)
(0.472615 -18.7053 0)
(0.525301 -18.2709 0)
(0.535236 -18.5568 0)
(0.40261 -19.5319 0)
(0.492859 -18.8667 0)
(0.482489 -18.7269 0)
(0.13215 -21.9483 0)
(0.127143 -22.1702 0)
(0.497715 -20.0559 0)
(0.223748 -11.9226 0)
(0.478844 -15.1336 0)
(0.51419 -17.5418 0)
(0.542018 -18.055 0)
(0.532825 -18.2775 0)
(0.550958 -18.6288 0)
(0.544565 -18.7737 0)
(0.265475 -20.6457 0)
(0.476858 -18.7734 0)
(0.483664 -21.0791 0)
(-1.37143 1.13564 0)
(-1.26467 1.14031 0)
(0.238379 -12.1385 0)
(0.531121 -17.8222 0)
(0.52603 -18.3024 0)
(0.398628 -19.3963 0)
(0.458403 -20.4214 0)
(0.154239 -22.2163 0)
(0.387279 -21.6702 0)
(0.263423 -22.706 0)
(0.449796 -21.871 0)
(0.488064 -15.4204 0)
(0.501223 -16.0386 0)
(0.51013 -16.2895 0)
(0.516602 -16.8823 0)
(0.51554 -16.9506 0)
(0.517999 -17.0302 0)
(0.517306 -17.1338 0)
(0.532303 -17.8833 0)
(0.542024 -18.2052 0)
(0.532936 -18.8664 0)
(0.526507 -19.4466 0)
(0.424717 -20.651 0)
(0.0658714 -22.8373 0)
(0.477207 -20.9892 0)
(0.387783 -21.8211 0)
(0.48298 -21.1339 0)
(0.494854 -15.746 0)
(0.511333 -17.5792 0)
(0.458672 -19.2353 0)
(0.387483 -19.5894 0)
(0.453568 -20.2748 0)
(0.521748 -19.4237 0)
(0.0253679 -22.0033 0)
(0.364164 -21.1291 0)
(0.458453 -20.8651 0)
(0.129704 -22.2921 0)
(0.506119 -20.1143 0)
(0.316107 -21.8666 0)
(0.198156 -22.6889 0)
(0.161979 -22.9961 0)
(0.119613 -23.4795 0)
(0.135364 -23.4504 0)
(-1.26033 1.17142 0)
(0.495613 -16.1794 0)
(0.497925 -17.9698 0)
(0.362298 -20.3426 0)
(0.195391 -21.0266 0)
(0.252974 -20.9601 0)
(0.520049 -19.4494 0)
(0.335706 -20.8158 0)
(0.384104 -21.2875 0)
(0.182048 -22.277 0)
(0.211752 -23.252 0)
(0.498571 -15.9606 0)
(0.501169 -16.1847 0)
(0.419881 -17.4653 0)
(0.515078 -17.8689 0)
(0.495291 -18.3985 0)
(0.536424 -18.1483 0)
(0.51358 -18.9823 0)
(0.0088138 -21.6309 0)
(0.51146 -20.1078 0)
(0.223405 -21.7839 0)
(0.512363 -20.1641 0)
(0.489516 -20.7379 0)
(0.475347 -19.6613 0)
(0.118194 -23.504 0)
(0.312635 -22.8809 0)
(0.172918 -23.8066 0)
(0.137119 -24.1609 0)
(0.198486 -11.6243 0)
(0.504896 -16.5947 0)
(0.508136 -16.6457 0)
(0.501713 -17.262 0)
(0.469048 -18.3045 0)
(0.387784 -19.0345 0)
(0.407925 -19.195 0)
(0.525586 -19.2657 0)
(0.30827 -20.9436 0)
(0.521008 -19.7377 0)
(0.518037 -19.602 0)
(0.466743 -19.2841 0)
(0.472501 -20.8308 0)
(0.0901718 -23.0317 0)
(0.324085 -22.5909 0)
(0.144372 -23.5703 0)
(0.407945 -22.2987 0)
(0.355108 -22.9629 0)
(0.0735216 -24.3239 0)
(0.199623 -23.7371 0)
(0.263645 -23.5985 0)
(0.422708 -22.4232 0)
(-1.24799 1.18582 0)
(0.475738 -15.0587 0)
(0.399562 -17.7184 0)
(0.519076 -17.5224 0)
(0.519614 -17.608 0)
(0.506556 -17.5683 0)
(0.34101 -19.7351 0)
(0.460209 -19.4822 0)
(0.50156 -19.4286 0)
(0.246862 -20.6916 0)
(0.0317338 -22.5353 0)
(0.323339 -21.6802 0)
(0.0320906 -23.1827 0)
(0.0708168 -23.1498 0)
(0.0579659 -23.3843 0)
(0.0682935 -23.9808 0)
(0.335259 -22.6881 0)
(0.177205 -23.6172 0)
(0.0184492 -25.1085 0)
(0.276341 -24.2779 0)
(-0.409272 -6.00832 0)
(0.480814 -16.2537 0)
(0.459971 -16.7452 0)
(0.475421 -18.8871 0)
(0.417622 -19.563 0)
(0.395805 -20.0501 0)
(0.461633 -19.9553 0)
(0.436728 -20.2262 0)
(0.461358 -21.3558 0)
(0.0599401 -23.3278 0)
(0.308766 -22.5105 0)
(0.382612 -22.1084 0)
(0.0560771 -23.6878 0)
(0.13321 -24.1225 0)
(0.133188 -24.372 0)
(0.000553104 -24.8562 0)
(0.1599 -24.2705 0)
(0.265806 -24.6444 0)
(0.524622 -17.7673 0)
(0.50095 -17.8701 0)
(0.445802 -18.6226 0)
(0.45753 -18.7496 0)
(0.512989 -18.4428 0)
(0.459827 -18.3592 0)
(0.420678 -19.6967 0)
(0.474711 -19.637 0)
(0.217937 -20.6496 0)
(0.0310548 -22.3233 0)
(0.467584 -20.8366 0)
(0.0942002 -22.5469 0)
(0.0508284 -23.0651 0)
(0.175432 -22.457 0)
(0.0821539 -23.1093 0)
(0.479704 -20.9262 0)
(0.128335 -23.3513 0)
(0.234552 -23.8747 0)
(0.0985501 -25.2182 0)
(0.0205366 -25.7508 0)
(0.216216 -25.16 0)
(0.264623 -24.7359 0)
(-0.243205 -7.24933 0)
(0.493472 -17.0697 0)
(0.334345 -19.4339 0)
(0.483062 -18.5983 0)
(0.511784 -19.8771 0)
(0.21084 -21.5155 0)
(0.413236 -21.5269 0)
(0.123109 -23.225 0)
(0.11615 -23.4625 0)
(0.115391 -23.5631 0)
(0.0569236 -25.4231 0)
(0.220285 -24.9013 0)
(-1.40883 1.17926 0)
(0.358948 -14.4313 0)
(0.480673 -15.8659 0)
(0.503326 -16.8678 0)
(0.510868 -17.6792 0)
(0.507288 -17.7957 0)
(0.514916 -18.8092 0)
(0.00887496 -21.0954 0)
(0.510234 -19.2474 0)
(0.178112 -21.9309 0)
(0.218708 -21.9653 0)
(0.464797 -21.1963 0)
(0.114911 -23.7874 0)
(0.381003 -22.9569 0)
(0.126529 -24.8892 0)
(0.047473 -25.9195 0)
(0.151054 -25.5421 0)
(0.362604 -18.1811 0)
(0.435395 -19.3775 0)
(0.243436 -20.7029 0)
(0.381175 -20.1335 0)
(0.445897 -20.3018 0)
(0.489982 -19.9118 0)
(0.294236 -21.3129 0)
(0.28996 -21.3474 0)
(0.121904 -22.5621 0)
(0.441429 -21.3701 0)
(0.122146 -22.7626 0)
(0.450617 -21.4633 0)
(0.433761 -21.8178 0)
(0.2412 -22.7073 0)
(0.391376 -22.491 0)
(0.0958134 -24.6447 0)
(0.255454 -24.2515 0)