/*--------------------------------*- C++ -*----------------------------------*\
| =========                 |                                                 |
| \\      /  F ield         | OpenFOAM: The Open Source CFD Toolbox           |
|  \\    /   O peration     | Version:  v1906                                 |
|   \\  /    A nd           | Web:      www.OpenFOAM.com                      |
|    \\/     M anipulation  |                                                 |
\*---------------------------------------------------------------------------*/
FoamFile
{
    version     2.0;
    format      ascii;
    class       scalarField;
    location    "2.83/lagrangian/coalCloud1";
    object      Yash(s);
}
// * * * * * * * * * * * * * * * * * * * * * * * * * * * * * * * * * * * * * //


53638
(
1
1
1
1
1
1
1
1
1
1
1
1
1
1
1
1
1
1
1
1
1
1
1
1
1
1
1
1
1
1
1
1
1
1
1
1
1
1
1
1
1
1
1
1
1
1
1
1
1
1
1
1
1
1
1
1
1
1
1
1
1
1
1
1
1
1
1
1
1
1
1
1
1
1
1
1
1
1
1
1
1
1
1
1
1
1
1
1
1
1
1
1
1
1
1
1
1
1
1
1
1
1
1
1
1
1
1
1
1
1
1
1
1
1
1
1
1
1
1
1
1
1
1
1
1
1
1
1
1
1
1
1
1
1
1
1
1
1
1
1
1
1
1
1
1
1
1
1
1
1
1
1
1
1
1
1
1
1
1
1
1
1
1
1
1
1
1
1
1
1
1
1
1
1
1
1
1
1
1
1
1
1
1
1
1
1
1
1
1
1
1
1
1
1
1
1
1
1
1
1
1
1
1
1
1
1
1
1
1
1
1
1
1
1
1
1
1
1
1
1
1
1
1
1
1
1
1
1
1
1
1
1
1
1
1
1
1
1
1
1
1
1
1
1
1
1
1
1
1
1
1
1
1
1
1
1
1
1
1
1
1
1
1
1
1
1
1
1
1
1
1
1
1
1
1
1
1
1
1
1
1
1
1
1
1
1
1
1
1
1
1
1
1
1
1
1
1
1
1
1
1
1
1
1
1
1
1
1
1
1
1
1
1
1
1
1
1
1
1
1
1
1
1
1
1
1
1
1
1
1
1
1
1
1
1
1
1
1
1
1
1
1
1
1
1
1
1
1
1
1
1
1
1
1
1
1
1
1
1
1
1
1
1
1
1
1
1
1
1
1
1
1
1
1
1
1
1
1
1
1
1
1
1
1
1
1
1
1
1
1
1
1
1
1
1
1
1
1
1
1
1
1
1
1
1
1
1
1
1
1
1
1
1
1
1
1
1
1
1
1
1
1
1
1
1
1
1
1
1
1
1
1
1
1
1
1
1
1
1
1
1
1
1
1
1
1
1
1
1
1
1
1
1
1
1
1
1
1
1
1
1
1
1
1
1
1
1
1
1
1
1
1
1
1
1
1
1
1
1
1
1
1
1
1
1
1
1
1
1
1
1
1
1
1
1
1
1
1
1
1
1
1
1
1
1
1
1
1
1
1
1
1
1
1
1
1
1
1
1
1
1
1
1
1
1
1
1
1
1
1
1
1
1
1
1
1
1
1
1
1
1
1
1
1
1
1
1
1
1
1
1
1
1
1
1
1
1
1
1
1
1
1
1
1
1
1
1
1
1
1
1
1
1
1
1
1
1
1
1
1
1
1
1
1
1
1
1
1
1
1
1
1
1
1
1
1
1
1
1
1
1
1
1
1
1
1
1
1
1
1
1
1
1
1
1
1
1
1
1
1
1
1
1
1
1
1
1
1
1
1
1
1
1
1
1
1
1
1
1
1
1
1
1
1
1
1
1
1
1
1
1
1
1
1
1
1
1
1
1
1
1
1
1
1
1
1
1
1
1
1
1
1
1
1
1
1
1
1
1
1
1
1
1
1
1
1
1
1
1
1
1
1
1
1
1
1
1
1
1
1
1
1
1
1
1
1
1
1
1
1
1
1
1
1
1
1
1
1
1
1
1
1
1
1
1
1
1
1
1
1
1
1
1
1
1
1
1
1
1
1
1
1
1
1
1
1
1
1
1
1
1
1
1
1
1
1
1
1
1
1
1
1
1
1
1
1
1
1
1
1
1
1
1
1
1
1
1
1
1
1
1
1
1
1
1
1
1
1
1
1
1
1
1
1
1
1
1
1
1
1
1
1
1
1
1
1
1
1
1
1
1
1
1
1
1
1
1
1
1
1
1
1
1
1
1
1
1
1
1
1
1
1
1
1
1
1
1
1
1
1
1
1
1
1
1
1
1
1
1
1
1
1
1
1
1
1
1
1
1
1
1
1
1
1
1
1
1
1
1
1
1
1
1
1
1
1
1
1
1
1
1
1
1
1
1
1
1
1
1
1
1
1
1
1
1
1
1
1
1
1
1
1
1
1
1
1
1
1
1
1
1
1
1
1
1
1
1
1
1
1
1
1
1
1
1
1
1
1
1
1
1
1
1
1
1
1
1
1
1
1
1
1
1
1
1
1
1
1
1
1
1
1
1
1
1
1
1
1
1
1
1
1
1
1
1
1
1
1
1
1
1
1
1
1
1
1
1
1
1
1
1
1
1
1
1
1
1
1
1
1
1
1
1
1
1
1
1
1
1
1
1
0.00444365
1
1
1
1
1
1
0.00444036
1
1
1
1
0.00444318
1
0.00443729
1
1
0.00444365
0.00444365
1
0.00444365
0.00444365
0.00444365
0.00443989
0.00444365
0.0043912
0.00444531
1
1
0.00444365
0.00439919
0.00444365
0.00444365
0.00444365
0.00444365
0.00444365
0.00444365
1
1
1
0.00444365
0.00444365
0.00444365
0.00444365
0.00444365
0.00443411
0.00444365
0.00444365
0.00438611
0.00441742
0.00444692
1
1
0.00441777
0.00441325
0.00444365
0.00444365
0.00444365
1
0.00437892
0.00444365
0.00444366
0.00444365
1
0.00440675
0.00444365
0.00444376
0.00444365
0.00446099
1
1
1
1
0.00444469
0.00444365
0.00444365
0.00440988
0.00444365
0.00444365
1
1
0.00444365
0.00442708
0.00444365
0.00444365
0.00444407
0.00444365
0.00433141
0.00442963
0.00444365
0.00444489
0.00444365
0.00444365
0.00432716
0.00444365
0.00431917
0.00432614
0.00440674
0.00444446
0.00444365
1
1
0.00432648
0.00435375
0.00440386
0.00444365
0.00444365
0.00437758
0.00442881
0.00445254
0.00432778
0.00432959
0.00444459
1
0.00444365
0.00444365
0.00444365
0.00444365
0.00444365
0.00444365
0.00434102
0.00445542
0.00444365
1
1
1
0.00444365
0.00444365
0.0043714
0.00444365
0.00434029
0.00444338
0.00439924
0.00444365
0.00441935
0.00443213
0.00444365
0.00444365
0.00444365
0.00444365
0.00444365
0.00444365
0.00444365
0.00444365
0.00444365
0.00442887
0.00432822
0.00444365
0.00444365
0.00444365
0.00444365
0.00444381
0.00440282
0.00436699
0.00443869
0.00444365
0.00431096
0.00440304
0.00444365
0.00433465
0.0044437
0.00440035
0.00436561
0.00436252
0.00435759
0.00436627
1
0.00440821
0.0044273
0.00437261
0.0043247
0.00434217
0.00444365
0.00437435
0.00442305
0.00434961
0.00438747
0.00444365
0.00444365
0.00434067
0.00444365
0.00442509
0.00444365
0.00444377
0.00430402
0.00444365
0.00435241
0.00444365
0.00444365
0.0044457
0.00435613
0.00444365
0.00438944
0.0043855
1
0.00444365
0.00444365
0.00444365
0.00439284
0.00435581
0.00436884
0.00444365
0.00436587
0.00444365
0.00444365
0.00444841
0.00444365
0.0043339
0.00443971
0.00437063
0.00444365
0.00444365
0.00436097
0.00439885
0.00444365
0.00444365
1
0.00444365
0.004335
0.00444365
0.00444365
0.00444393
0.00434764
0.00441372
0.00444365
0.00433444
0.00431864
0.00439812
0.00433114
0.00433339
0.00433742
0.00435168
0.00444365
0.00438265
0.00438328
0.00444365
1
0.0043767
0.00435927
0.0044092
0.00438306
0.00438606
0.00444244
0.00442718
0.00444365
0.00433536
0.00442081
0.00444365
0.00434264
0.00437924
0.00438699
0.00437216
0.00440002
0.00444365
0.00444365
0.00444461
0.00437715
0.00438815
0.00444365
0.00445543
0.00439097
0.00444152
0.00432401
0.00431421
0.00444365
0.0043239
0.00432914
0.00435016
0.00433295
0.00444365
0.00435624
0.00442655
0.00440001
0.00442081
0.00444365
0.00444365
1
0.00441882
0.00433795
0.00444567
0.00444365
0.00434041
0.00444365
0.00434993
0.00434999
0.00435148
0.00439983
0.00444365
1
1
0.00438217
0.00444365
0.0044437
0.00444374
0.00444365
0.00429502
0.00444365
0.00433797
0.00435281
0.00444365
0.00435615
0.00444365
0.00439571
0.00443334
0.00444365
0.00432633
0.00439115
0.00433489
0.00438066
0.00443619
0.00444365
0.00436964
0.00436846
0.00433522
0.00444365
0.00433932
0.00444365
0.00444365
0.00438384
0.00444365
0.00436957
0.00444365
0.00439961
0.00441912
0.00444365
1
1
0.00444365
0.00444365
0.00432605
0.00441466
0.00434239
0.00435533
0.00440964
0.00432816
0.00433436
0.00435883
0.00444409
0.00433813
0.00442013
0.00441022
0.00440622
0.00438641
0.00444287
0.00444365
0.00444365
0.00444365
0.00428336
0.00434294
0.00444365
0.00444365
0.00439924
0.00444529
0.00431648
0.00444094
0.00432511
0.00437423
0.00444365
0.00444365
0.00444365
1
0.00441948
0.00444365
0.00444365
0.00440533
0.00433509
0.00438468
0.00434951
0.00432246
0.00440531
0.004333
0.00436322
0.00435501
0.00436296
0.00438626
0.00434412
0.00436901
0.00438785
0.00438002
0.00436893
0.00442428
0.00444365
0.00444365
1
1
0.00444365
0.00444365
0.00444365
0.00444365
0.00444365
0.00430276
0.00444377
0.00444365
0.00444365
0.0043231
0.00435405
0.00444365
0.00434506
0.00440387
0.00435678
0.00435861
0.00438084
0.00438401
0.00444365
0.00444365
0.00444365
1
0.00444365
0.00444365
0.00444365
0.00441044
0.00438138
0.0044108
0.00433586
0.00434099
0.00433086
0.00433552
0.00444365
0.00435147
0.00437015
0.00437491
0.0043743
0.00436491
0.00444365
0.00436357
0.00444365
0.00444365
0.00444251
0.00444365
0.00444365
0.00444365
0.00444365
0.00444365
0.00443198
0.00435694
0.00441718
0.00431671
0.00431762
0.00432094
0.00434344
0.00444365
0.00434589
0.00438004
0.00440329
0.00439982
0.00444365
0.00441078
0.00442529
0.00444365
0.00444365
0.00444365
0.00444365
1
1
1
0.00440741
0.00439716
0.00444365
0.00444365
0.00444395
0.00444365
0.00431473
0.00433755
0.00432392
0.00434776
0.00435028
0.00434932
0.00435426
0.00440084
0.00444365
0.00444365
0.00438378
0.00438248
0.0044374
0.00438768
0.00439803
0.00444365
0.00440366
0.00444365
0.00444365
0.00445436
0.00444365
0.00444365
0.0044446
0.00443039
0.004424
0.00433048
0.00435952
0.00444368
0.0043531
0.00444365
0.00444486
0.00435504
0.00435592
0.00436469
0.00436375
0.00437188
0.00437525
0.00444365
1
0.00444365
0.00430692
0.00437287
0.00433366
0.00429761
0.00444365
0.00430894
0.00432026
0.00436628
0.00436695
0.00434395
0.00444365
0.00433821
0.00440577
0.00444368
0.00434431
0.00444365
0.00444365
0.00431875
0.00434247
0.00444365
0.00444365
0.00434452
0.00432358
0.00444365
0.00444365
0.00433178
0.00437107
0.00444365
0.0043229
0.00437006
0.00441605
0.00434285
0.00435751
0.00435999
0.00444365
0.00435952
0.00440153
0.00444365
0.00444365
0.00444365
0.00440444
0.00438293
0.00431721
0.00435315
0.00439283
0.00432378
0.00433431
0.00432177
0.00432144
0.00435396
0.00436454
0.00444365
0.00434762
0.00442333
0.00436417
0.00438273
0.00436363
0.00436801
0.00440573
1
0.00440767
0.00444365
0.00441362
0.00443793
0.00429593
0.00444365
0.00438988
0.0043303
0.00431907
0.00441223
0.00444365
0.00433441
0.00436643
0.00433797
0.00435526
0.00433429
0.00438412
0.00435841
0.00438378
0.00444365
0.00439185
0.00444365
0.00444365
0.00441056
0.00444365
0.00444365
0.00433857
0.00439562
0.00431709
0.00428703
0.0042892
0.00444365
0.0042937
0.00434171
0.00432245
0.00432263
0.00437584
0.00437295
0.00435202
0.00436287
0.00444365
0.00437837
0.00444379
0.00444365
0.00444365
1
0.00444365
0.00444393
0.00434325
0.00444417
0.00430208
0.00444365
0.00434517
0.00437603
0.0043632
0.0043258
0.00432739
0.00444365
0.00434447
0.0043901
0.0043512
0.00436788
0.00439242
0.00443741
0.00444365
0.0044236
1
0.00444365
0.00435744
0.00444365
0.00431718
0.00429682
0.00439686
0.00441322
0.00444365
0.00443531
0.00437649
0.00439528
0.00444365
0.00433051
0.00434149
0.00437956
0.00434381
0.00444365
0.00435728
0.00436403
0.00444365
0.00437897
0.00443697
0.00444365
0.00444365
0.00443714
0.00438677
0.00436213
0.00441848
0.00444365
0.00429987
0.00434749
0.00435542
0.00434573
0.0043733
0.00439288
0.00437573
0.00439794
0.00440784
0.00444365
0.00443293
0.00441709
0.00444365
0.00444365
1
0.00444365
0.00432049
0.00442961
0.00435638
0.00444365
0.0043112
0.00433155
0.00438922
0.00431358
0.00432822
0.00434517
0.00434223
0.00434445
0.00438968
0.00437205
0.00444365
0.00444365
0.00444365
0.00444365
0.00444365
1
0.0044109
0.00444365
0.004399
0.00440325
0.00429531
0.00444365
0.00430231
0.0042974
0.00438024
0.00430081
0.00432263
0.00430779
0.00441248
0.00436321
0.00444365
0.00444365
1
0.00441489
0.00444365
0.00444365
0.0043874
0.00444365
0.00444365
0.00435484
0.00430755
0.00437188
0.00444365
0.00433394
0.00435871
0.00435594
0.00444365
0.00438027
0.00444365
0.00444365
0.00444365
1
0.0043947
0.00441325
0.00439299
0.00441961
0.00444365
0.00444365
0.00430461
0.00437064
0.00429362
0.00430575
0.00444434
0.00430432
0.00444365
0.00431369
0.00433727
0.00432065
0.00432129
0.0043245
0.0043796
0.00444365
0.00442462
0.00442454
1
1
0.00434334
0.00436641
0.00433694
0.00436714
0.00432742
0.00436386
0.00430091
0.00433089
0.00444433
0.00431769
0.00433047
0.00438495
0.00432458
0.00431973
0.00444365
0.00432567
0.00433688
0.00439921
0.00434618
0.00435848
0.00437116
0.00439398
0.00438926
0.00444365
0.00444365
0.00444365
1
0.00440102
0.00437208
0.00444365
0.00430355
0.00429771
0.00444365
0.00444365
0.00430655
0.00432282
0.00436024
0.00433313
0.00434321
0.00437991
0.00435596
0.00438153
1
0.00443948
0.0043814
0.00435449
0.00440066
0.00432504
0.00444365
0.00444365
0.00431592
0.0044438
0.00430965
0.00439968
0.00441507
0.00432516
0.00444365
0.00437911
0.0043115
0.00444365
0.0043352
0.00435796
0.00444362
0.00438187
0.00435806
0.00439685
0.00440237
0.00442748
0.00439023
0.00444365
0.00443546
0.004316
0.00444365
0.00444365
0.00444365
0.00434222
0.00440227
0.00443261
0.00444365
0.00433445
0.0043849
0.0044076
0.00444365
0.00433078
0.00433277
0.00437541
0.00441425
0.00439905
0.0044239
0.00444365
0.00444365
0.00435656
0.00444365
0.00444365
0.00444365
0.00431831
0.0042925
0.00441234
0.00432407
0.00431621
0.00435965
0.00433758
0.00444365
0.0043445
0.00434532
0.0043569
0.00435689
0.00435767
0.00436244
0.00444365
0.00437994
1
0.00436488
0.0044236
0.00444319
0.00436585
0.00444365
0.00433804
0.00431925
0.00430793
0.00432511
0.00430427
0.00442045
0.00439619
0.0043307
0.00433709
0.00433582
0.00437298
0.00437674
0.00436185
0.00440485
0.00444365
0.00441182
1
0.00444365
0.00432878
0.00436096
0.00444377
0.00432948
0.00434316
0.00434051
0.00434046
0.00435652
0.0043746
0.00435425
0.00436355
0.00435883
0.00436579
0.00437185
0.00439258
0.00440619
1
0.00444365
0.00444365
0.00433915
0.00433193
0.00444365
0.00437716
0.00444365
0.00444365
0.00430533
0.00438418
0.00444365
0.00435735
0.00441489
0.00444365
0.00432719
0.0043308
0.00435214
0.00438224
0.00438683
0.00436906
0.00437333
0.00444365
0.00441385
0.00444365
0.00444365
1
0.00441818
0.00436561
0.00444365
0.00433061
0.00437892
0.00444402
0.00444365
0.00432422
0.00436529
0.00439798
0.00429797
0.00431517
0.00432378
0.00435571
0.00432175
0.0043375
0.00434417
0.00435536
0.0043256
0.004327
0.00433607
0.00437249
0.00444283
0.00437865
0.00440233
0.00444365
0.00441661
0.00444365
0.00444365
0.0042793
0.00444365
0.00437783
0.00432468
0.00434093
0.00430567
0.00430503
0.00431947
0.00444365
0.00431634
0.00431631
0.00431924
0.00432298
0.00438079
0.00435034
0.00436578
0.00444365
1
0.00444365
0.00440692
0.00431489
0.00444014
0.00430249
0.00432929
0.00442336
0.00444365
0.00437743
0.00429999
0.00433139
0.0043812
0.00434644
0.00433359
0.00436957
0.00436598
0.00444365
0.0043732
0.00439691
0.00439094
1
1
0.00438186
0.00439979
0.00430885
0.00441506
0.00444365
0.00444365
0.00430886
0.00432206
0.00434991
0.00439308
0.00432094
0.0043593
0.00435054
0.00434137
0.00435622
0.00442791
0.00444365
1
1
1
0.00431652
0.00436711
0.00444365
0.00442492
0.00437999
0.00429529
0.00429096
0.00443213
0.004342
0.0043676
0.00444365
0.00431154
0.00432023
0.00433054
0.00434249
0.00434862
0.00436946
0.00440223
0.00443219
1
0.0043959
0.00444365
0.00444404
0.00435611
0.00435279
0.00428629
0.00430355
0.00432097
0.00437317
0.00438048
0.00433041
0.00439368
0.00432821
0.00434179
0.00433482
0.00436899
0.00437207
0.00434401
0.00439871
0.00439553
0.0044215
1
0.00437056
0.00443658
0.00429995
0.00431042
0.00444365
0.00432421
0.00442806
0.00432856
0.00436313
0.00444365
0.00431937
0.00432127
0.00437958
0.00432283
0.00444365
0.00433001
0.004347
0.00439275
0.00444365
0.00440738
0.00443228
0.00444365
0.00444365
0.00444365
0.00444365
0.00444365
0.00444365
0.00432675
0.00444365
0.00439249
0.00429177
0.00429449
0.00430795
0.00444378
0.004321
0.00432461
0.00442527
0.00432108
0.00432664
0.00433798
0.0043486
0.00437645
0.00434246
0.00439793
0.00440556
0.00441957
0.00444365
0.00443883
0.00432459
0.00444365
0.00444365
0.00444365
0.00437464
0.00429945
0.00428769
0.00435748
0.00430513
0.00430522
0.00431552
0.00435666
0.0043233
0.00432957
0.00432974
0.00436495
0.00433012
0.00437754
0.00436271
0.00437612
0.00440809
0.00435275
0.00437732
0.0043114
0.00433615
0.00428068
0.00428995
0.00436371
0.00433449
0.00435913
0.00433544
0.00433106
0.00438109
0.00435969
0.00438393
0.00444365
0.00444365
0.00441665
0.00444365
0.00444365
0.0044053
0.00439069
0.00428249
0.00439961
0.00429096
0.00437009
0.00430189
0.00430432
0.00431696
0.00433213
0.0043446
0.00436017
0.00436195
0.00434434
0.00444365
0.0043543
0.00435922
0.00435899
0.00442831
0.00442767
0.00441462
0.00444365
1
0.00433868
0.00436253
0.0043671
0.0043071
0.0043198
0.00431492
0.00431186
0.00433102
0.0043106
0.00431345
0.00432795
0.00435532
0.0043589
0.0043376
0.00436508
0.0043921
0.00444365
0.00437642
0.00436392
0.00444148
0.00444365
0.00444365
0.00438571
0.00431571
0.00444365
0.00431987
0.00434271
0.00444365
0.00436833
0.00430926
0.00434251
0.00435415
0.00432105
0.00432403
0.00432808
0.00440614
0.00436107
0.00436607
0.00443197
0.00440199
0.00444365
0.00444365
0.00444365
0.00444365
0.00444365
0.00433509
0.00439266
0.00437222
0.0043545
0.00428673
0.0042964
0.00430721
0.00434658
0.00444365
0.00430427
0.00432021
0.00438552
0.00431456
0.0043305
0.00433435
0.00433769
0.00433159
0.00435999
0.00437661
0.00444365
0.00438193
0.00438907
1
0.004421
0.00444365
0.00444365
0.00433249
0.00435929
0.00440871
0.00429902
0.00430392
0.00438799
0.00435205
0.00433628
0.00433562
0.00437877
0.00432808
0.00436045
0.00444365
0.00435841
0.00444365
0.00444365
1
1
0.00439449
0.00427822
0.00444365
0.00433535
0.00431799
0.00429847
0.00428959
0.00429814
0.00431878
0.00430366
0.00430533
0.00430743
0.00432511
0.00437515
0.00432202
0.00432764
0.00433324
0.00439296
1
0.00444365
0.00444365
0.00444365
0.00431368
0.00444365
0.00444716
0.00430607
0.00432443
0.00433224
0.00436065
0.00430644
0.00430923
0.00433588
0.00433068
0.00433569
0.00434601
0.00438355
0.00436986
1
1
0.00441028
0.00439617
0.00436117
0.00432982
0.00435773
0.00436273
0.00427891
0.00435428
0.0042952
0.00430288
0.00431467
0.00444365
0.00430932
0.00432191
0.00434382
0.00435992
0.00436983
1
0.00444365
0.00434762
0.00441184
0.00444365
0.00444365
0.00437202
0.00432964
0.00431204
0.00432789
0.00444365
0.00443261
0.00430126
0.00430272
0.00433486
0.00438528
0.00433679
0.00438495
0.00434998
0.00434544
0.00434437
0.00444365
0.00436923
0.00442198
0.00444365
1
0.00437109
0.0043341
0.00444365
0.00436562
0.00444365
0.00444365
0.0042728
0.00437281
0.00441345
0.00444365
0.0042966
0.00430883
0.00444365
0.00437266
0.00444365
0.00429665
0.00431726
0.00437784
0.00431898
0.00433076
0.00434479
0.00444365
0.00443745
0.00434072
0.00444365
0.00442146
0.00444365
0.00434037
0.00444365
0.00433074
0.00437681
0.00439439
0.00440432
0.00443573
0.00429877
0.00444365
0.00432046
0.0043271
0.00431403
0.00441352
0.00433239
0.00433736
0.00443415
0.00444365
0.00434972
1
1
0.00433395
0.00444365
0.00440526
0.00435001
0.00440146
0.00433248
0.00430839
0.00444103
0.00441747
0.0042794
0.00440253
0.00439005
0.00440636
0.00431002
0.00432604
0.00437947
0.00429633
0.00431462
0.0043458
0.00432626
0.00436091
0.00433108
0.00433663
0.00433688
0.00434899
0.00437478
0.00439036
0.00444365
0.00438775
1
1
1
1
1
1
1
1
1
1
1
1
1
1
1
1
1
1
1
1
1
1
1
1
1
1
1
1
1
1
1
1
1
1
1
1
1
1
1
1
1
1
1
1
1
1
1
1
1
1
1
1
1
1
1
1
1
1
1
1
1
1
1
1
1
1
1
1
1
1
1
1
1
1
1
1
1
1
1
1
1
1
1
1
1
1
1
1
1
1
1
1
1
1
1
1
1
1
1
1
1
1
1
1
1
1
1
1
1
1
1
1
1
1
1
1
1
1
1
1
1
1
1
1
1
1
1
1
1
1
1
1
1
1
1
1
1
1
1
1
1
1
1
1
1
1
1
1
1
1
1
1
1
1
1
1
1
1
1
1
1
1
1
1
1
1
1
1
1
1
1
1
1
1
1
1
1
1
1
1
1
1
1
1
1
1
1
1
1
1
1
1
1
1
1
1
1
1
1
1
1
1
1
1
1
1
1
1
1
1
1
1
1
1
1
1
1
1
1
1
1
1
1
1
1
1
1
1
1
1
1
1
1
1
1
1
1
1
1
1
1
1
1
1
1
1
1
1
1
1
1
1
1
1
1
1
1
1
1
1
1
1
1
1
1
1
1
1
1
1
1
1
1
1
1
1
1
1
1
1
1
1
1
1
1
1
1
1
1
1
1
0.00444365
0.00444365
1
0.00444365
1
0.00444365
0.00444365
1
0.00445236
1
1
1
0.00444365
0.00444365
0.00444476
0.00444725
0.0044502
1
1
0.00444365
1
0.00444365
0.00444914
0.00444495
0.00445162
1
1
0.00444491
0.0044465
0.0044505
0.00446384
0.00448493
1
1
1
0.00444498
0.00446408
0.00444704
0.0044447
0.00444533
0.00444385
0.00444365
0.00444583
0.00444688
0.00444365
0.00446248
0.00445146
1
1
1
0.00444365
0.00441706
0.0045894
0.00444372
0.00444882
1
0.00444954
0.00449159
1
1
0.00444365
0.00444365
0.00444365
0.00453515
1
0.00444365
0.00444427
0.00448485
0.00444365
0.00444365
0.0044437
0.00444391
1
0.00444386
0.00444365
0.00443545
0.00444365
1
1
1
1
0.00444365
0.00445381
0.00447322
0.00444365
0.00444423
0.00444548
0.00440902
0.00444381
0.00444422
0.00444365
0.00444365
0.00438751
0.00444365
0.00444365
0.00445421
0.00447276
0.00444365
0.00444365
0.00441986
0.00450752
0.00444365
0.00444365
0.00444365
0.00444365
0.00444365
0.00444365
0.00444781
0.00445742
0.00444365
0.00444365
0.00444365
0.00444774
0.00444897
0.0044448
0.00444754
0.00444365
0.00445142
0.00444554
0.00444372
0.00444365
0.00444365
0.00444398
0.0043371
0.00444365
0.00444663
1
0.00444505
0.00444435
0.00444413
0.00444365
0.00446851
0.00445149
0.00444365
0.00444527
0.00444365
0.00444365
0.00444365
0.00444365
0.00444365
0.00444365
0.00444365
0.00444502
0.00445035
0.00444417
0.00444365
0.00444626
0.00444769
0.00444365
0.00450369
0.00444365
0.0044589
1
0.00444456
0.00446666
0.00445014
0.00444365
0.00444548
0.00444365
0.00444365
0.00444365
0.00436738
0.00444365
0.00444401
0.00444371
0.00444365
0.00444365
0.00444617
0.00445468
0.0044908
0.00445991
0.00444381
0.00444651
0.00444365
0.00444365
0.00444365
1
1
1
1
1
0.00444508
0.0044483
0.00440638
0.00444365
0.00444365
0.00445627
1
0.00444365
0.00444475
0.00444365
0.00444365
0.00448379
0.00444365
0.00445213
0.00444365
0.00438315
0.00444365
0.00444436
0.00444421
0.00444365
0.00444365
0.00452099
0.00444365
0.00446675
0.00444365
0.00444365
0.00444365
0.00444365
0.00444404
0.00444365
0.00444365
0.00444374
1
0.00444365
0.00444365
0.00444684
0.00444365
0.00444589
0.00444418
0.00445273
0.00440646
0.00444452
0.00444365
0.00444442
1
0.00444566
0.00444525
0.00444485
0.00444365
0.00444365
0.00445558
0.00444365
0.00444365
0.00444365
0.00444365
0.00440427
0.00443839
0.00444365
0.00444404
0.00444382
0.00444365
0.00444365
1
0.00444365
0.00444365
0.00455753
0.00444365
0.00444365
0.00444365
0.00444365
0.00445644
0.00443259
0.00444365
0.00444365
0.00444365
0.00444365
0.00444365
0.00444466
0.00444365
1
0.00444365
0.00444365
0.00444783
0.00444365
0.00444365
0.00445495
0.00445769
0.00444573
0.00444386
0.00444365
0.0043906
0.00446226
0.00444365
0.00444239
0.00444365
0.0044448
1
0.0044448
0.0044457
0.00445251
0.00445636
0.00444365
0.00444365
0.00433293
0.00448681
0.00439604
0.00435096
0.00441036
0.00444365
0.004384
0.00444365
0.00444365
0.00443511
0.00444365
0.00444365
0.00444365
0.00444365
0.00444365
0.00444365
1
1
0.00444415
0.00445893
0.00445816
0.00437542
0.00444365
0.00444405
0.00436789
0.00442669
0.0044023
0.00444365
0.00444365
0.00443493
0.00444365
0.00444365
0.00444365
0.00444365
0.00444365
0.00444373
0.00444365
0.0043818
0.00443661
0.00444365
0.00444365
0.00441493
0.00444365
0.00444365
0.00444502
0.00444365
0.00444365
0.00440748
0.00444365
0.00444365
0.00444365
0.00444365
0.00444365
0.00444365
0.00444365
0.00444365
0.00444365
0.00444365
1
1
0.00444682
0.00444478
0.00444365
0.00444475
0.00450339
0.00444365
0.00444365
0.00444365
0.00444365
0.00437854
0.00439372
0.00444474
0.00444365
0.0043965
0.00443978
0.00440418
0.00444365
0.00444365
0.00444365
0.00444365
0.00444365
0.00444365
0.00444365
0.00444365
0.00444365
0.00444396
0.00444455
0.00444365
0.00444435
0.00444452
0.00444424
0.00444365
0.00444365
0.00444365
0.00435548
0.00446884
0.00442947
0.0044451
0.00440954
0.00437402
0.00442112
0.00439957
0.00444972
0.00444365
0.00444365
0.00444365
0.00444365
0.00444367
0.00444365
0.00444365
0.00444441
0.00444365
0.00444402
0.004444
0.00445322
0.00440289
0.00440044
0.0043571
0.00443577
0.00436951
0.00443703
0.00444365
0.00444365
0.00444365
0.00440854
0.00444365
0.00444365
0.00444365
0.00444365
0.00440894
0.00444365
0.00444365
0.00444365
0.00444365
0.00444365
0.00444365
0.00444365
0.00444365
0.00444365
0.00444365
0.00444407
1
0.00444365
0.00445611
0.00444365
0.00438929
0.00440964
0.00443272
0.0043844
0.00441725
0.00444365
0.00444399
0.00444365
0.00444365
0.00444365
0.00444365
0.00444365
0.00444379
0.00444365
0.00444365
0.00444365
0.00444365
1
1
0.00444365
0.00444365
0.00445225
0.00446134
0.00444365
0.00444365
0.0044195
0.00444365
0.00434509
0.00444365
0.00444365
0.00444365
1
1
1
1
0.0044438
0.00444365
0.00444665
0.00444551
0.00444365
0.0044201
0.00441487
0.00439271
0.00444365
0.00443427
0.00439741
0.00444365
0.00442139
0.00444365
0.00444365
0.00444365
0.00444365
0.00444365
0.00444365
1
1
1
0.00444567
0.00444365
0.00444365
0.00444365
0.00444365
0.00441822
0.00437931
0.00436387
0.00444365
0.00444365
0.00444365
0.00444616
0.00444365
0.00441128
0.00444365
0.00444365
0.00444365
0.00444365
0.00444477
0.00444365
0.00444365
0.00444442
1
1
0.00444365
0.00445523
0.00445473
0.00444443
0.00444425
0.00434846
0.00444365
0.00436476
0.00436972
0.00441113
0.00443022
0.00444365
0.00444365
0.00444365
0.00444495
0.00444365
0.00444365
0.00444365
0.00444376
1
0.00444682
0.00445384
0.00444378
0.00439452
0.00438569
0.00444365
0.00444365
0.00440437
0.00440155
0.0044411
0.00444365
0.00444365
0.00444365
0.00444365
1
1
0.00444365
0.00444365
0.00444365
0.00445187
0.00444365
0.00444365
0.00438825
0.00444689
0.00440011
0.00444262
0.00440994
0.00444365
0.00444365
0.00444365
0.00440459
0.00444365
0.00444365
0.00444365
0.00444365
0.00444365
0.00444365
0.00444365
0.00444365
1
0.00444365
0.00446853
0.00445775
0.00445661
0.00444365
0.00444365
0.0044538
0.00444365
0.00443846
0.00444365
0.00438583
0.00439353
0.00443284
0.00444365
0.00444365
0.00444402
0.00444365
1
0.00444365
0.00444433
0.0044475
0.00443962
0.00444594
0.00444389
0.00444396
0.00444444
0.00444365
0.00444719
0.00444896
0.00444365
0.00444365
0.00444365
0.00444365
0.0043847
0.00444365
0.00443789
0.00444365
0.00444365
0.00444365
0.00444365
0.00444365
1
1
1
0.00444365
0.00444365
0.00443891
0.00444453
0.00444365
0.00437392
0.00443266
0.00444469
0.00442126
0.00444365
0.00444365
0.00444365
0.00444365
0.00444365
0.00444365
0.00444365
1
1
1
0.00444391
0.00445961
0.00444365
0.00438368
0.00444365
0.00444365
0.00436018
0.00444407
0.00442435
0.0044439
0.00438293
0.00436549
0.00442083
0.00443548
0.00441631
0.00444365
0.00444358
0.00444365
0.00444365
0.00444365
0.00444365
0.00444365
1
0.00444048
0.00445691
0.00444365
0.00444375
0.00444365
0.00439885
0.00444365
0.00444365
0.00438446
0.00444365
0.00444365
0.00441993
0.00444365
0.00444365
0.00444365
0.00444365
0.00444365
0.00444365
0.00444365
0.00444365
0.00444436
1
1
0.00444365
0.00444365
0.00444403
0.0044502
0.00444365
0.00445712
0.00444365
0.00445182
0.00441142
0.00444403
0.00444365
0.0044192
0.00439267
0.00444365
0.00444365
0.00444365
0.00444388
0.00444365
0.00444398
0.00444365
0.00444465
0.00444365
0.00444583
0.00444365
0.00444365
0.00435682
0.00435317
0.00444365
0.00439318
0.00439757
0.00444365
0.00444365
0.00441479
0.00441435
0.00444365
0.00444365
0.00444365
0.00444365
0.00444365
1
1
0.00444365
0.00447411
0.00444365
0.00444365
0.00444365
0.00434984
0.00444365
0.00444365
0.00437475
0.00444365
0.00444432
0.00436263
0.00444421
0.00444525
0.00444365
0.00444024
0.00444428
0.00444365
0.00444365
1
1
0.00444371
0.00444415
0.00442245
0.00444727
0.00444429
0.00444724
0.00439076
0.00436737
0.00434213
0.0044327
0.00444801
0.00436815
0.00444365
0.00441504
0.00444365
0.00444392
0.00444365
1
1
0.00444446
0.00444365
0.00444662
0.00444365
0.00440701
0.00448172
0.00444365
0.00444365
0.00444365
0.00441602
0.00443476
0.00444365
0.00444365
0.00440897
0.00440161
0.00443079
0.00444365
0.00444365
0.00444401
0.00444365
0.00444365
0.00444365
0.00444365
0.00431007
0.0044438
0.00444727
0.00444453
0.00435879
0.00437942
0.00433865
0.00444365
0.00444365
0.00444365
0.00444365
0.00444365
0.00442471
0.00444365
0.00444365
0.00444365
0.00444365
0.00444365
0.00444365
0.00444365
1
1
1
0.00444365
0.00444402
0.00434422
0.00445057
0.00444365
0.00433419
0.00434926
0.00439578
0.00444365
0.00444203
0.00444365
0.00444377
0.00444365
0.00444365
0.00444369
1
0.00444365
0.00444365
0.00444514
0.00444365
0.00444365
0.0043999
0.0043535
0.00435463
0.00435193
0.00435244
0.0043941
0.00438933
0.00436135
0.00436829
0.00437311
0.00444232
0.00444485
0.00443608
0.00444365
0.00443702
0.00444365
0.00444365
0.00444365
0.00444365
0.00444365
0.00444365
0.00444365
0.00444365
0.00444365
0.00444379
0.00444398
0.00444365
1
0.00444365
0.004445
0.00444436
0.00444385
0.00444365
0.00444365
0.00444425
0.00444365
0.00444371
0.00443537
0.00438199
0.00435081
0.00443978
0.00444365
0.0044229
0.00442479
0.00444365
0.00444365
0.00444365
0.00443267
0.00444365
0.00444365
0.00444365
1
0.00444365
0.00444365
0.00439341
0.00444365
0.0043538
0.00441663
0.00444365
0.00444365
0.00442187
0.00441277
0.00444464
0.00444365
0.00444365
0.00444365
0.00444365
1
0.00444365
0.0044439
0.00444429
0.00446125
0.00444966
0.00444365
0.00444365
0.00444369
0.00434103
0.00437047
0.00441601
0.00444365
0.00444365
0.00444365
0.00442956
0.00439506
0.00439286
0.00444365
0.00444365
0.00444365
0.00444365
0.00444365
0.00444365
0.00444365
0.00444365
0.00444365
0.00444365
0.00444365
1
0.00444266
0.00446386
0.00444626
0.0044555
0.004444
0.00444365
0.00444365
0.00437592
0.00444042
0.00444365
0.00444365
0.00444365
0.00444365
0.00444365
1
0.00444365
0.00444408
0.00444365
0.00448878
0.00446222
0.00444365
0.00444447
0.00444135
0.00437263
0.00434309
0.00439706
0.00444383
0.00444366
0.00444365
0.00444365
0.00444365
0.00444365
0.00444365
0.00444365
0.00444365
0.00444365
0.00444365
0.00444365
0.00444365
0.0044437
0.00444867
0.00444365
0.00444395
0.00439016
0.00444365
0.00437498
0.00436245
0.00438599
0.00440695
0.00443528
0.00442337
0.00444365
0.00444365
0.00444365
0.00444365
0.00444365
0.00444365
1
1
0.00444365
0.00444365
0.00444365
0.00444365
0.00444365
0.00444365
0.00434683
0.00444365
0.0045224
0.0044588
0.00444365
0.00446052
0.00434001
0.00441615
0.00444365
0.00444365
0.00444365
0.00436682
0.00444698
0.00444365
0.00443702
0.00440617
0.00444365
0.00444365
0.00443105
0.00443918
0.00444365
0.00444467
1
0.00444365
0.00444365
0.00444365
0.00434464
0.00435266
0.00438617
0.00444365
0.00436543
0.00441879
0.00444365
0.00444365
0.00444365
0.00443763
0.00444365
0.00441191
0.00444365
0.00444365
0.00444431
0.00444365
0.00444409
0.00444365
0.00444365
1
0.00444365
0.00444365
0.00444365
0.00444365
0.00444365
0.00444398
0.00444569
0.0043776
0.00433304
0.00444365
0.00444365
0.00439654
0.0043907
0.00444365
0.00444365
0.00443407
0.00444365
0.00444365
0.00444365
0.00444365
0.00444365
0.00444365
0.00444365
1
1
0.00441504
0.00444365
0.00444365
0.00444365
0.00436843
0.00438726
0.00435991
0.00441449
0.00444365
0.00434862
0.00442201
0.00439385
0.00438537
0.00439013
0.00442754
0.00444365
0.00444365
0.00444365
0.00444365
0.00444365
0.00444365
0.00444365
0.00444365
0.00444365
0.00444365
0.00445858
0.00439661
0.00444993
0.00442574
0.00444365
0.00432534
0.00442947
0.00444365
0.00444365
0.00444365
0.00444365
0.00437206
0.00440613
0.00435446
0.00443493
0.00444365
0.00443517
0.00441327
0.00444365
0.00444365
0.00444365
1
1
1
0.00439618
0.00444418
0.00440633
0.00438952
0.00440291
0.00438143
0.00438969
0.00444365
0.00442272
0.00444365
0.00444365
0.00444365
0.00444901
0.00444365
0.00444365
0.004444
0.00444365
0.00444365
0.00444396
0.00443796
0.00444365
0.0043274
0.00439912
0.00444365
0.00442445
0.00437068
0.00437064
0.00444365
0.00444365
0.00444365
0.00444365
0.00444365
0.00444365
0.00444396
0.00444365
0.0044475
0.00444451
0.0044442
0.00440138
0.00444215
0.00444365
0.00444365
0.00433112
0.00444366
0.00444365
0.00438115
0.00442032
0.00444365
0.00444365
0.00444365