/*--------------------------------*- C++ -*----------------------------------*\
| =========                 |                                                 |
| \\      /  F ield         | OpenFOAM: The Open Source CFD Toolbox           |
|  \\    /   O peration     | Version:  v1906                                 |
|   \\  /    A nd           | Web:      www.OpenFOAM.com                      |
|    \\/     M anipulation  |                                                 |
\*---------------------------------------------------------------------------*/
FoamFile
{
    version     2.0;
    format      ascii;
    class       scalarField;
    location    "2.83/lagrangian/coalCloud1";
    object      YC(s);
}
// * * * * * * * * * * * * * * * * * * * * * * * * * * * * * * * * * * * * * //


53638
(
1.75058e-16
-4.84794e-32
-7.69991e-16
-4.89413e-16
-1.03109e-15
-1.3299e-16
2.90324e-32
-3.51226e-16
-1.42726e-15
8.18191e-16
1.6827e-16
7.48937e-17
-8.47942e-21
-3.36221e-15
-7.69027e-22
9.43736e-16
-1.43016e-15
-1.94611e-31
-6.21911e-32
-2.17747e-32
-4.74532e-17
-3.71003e-16
2.21191e-24
-1.10477e-19
-1.45023e-16
-1.99881e-21
6.20338e-16
-3.08773e-16
-4.36224e-16
-6.86345e-32
2.70419e-16
6.6088e-17
-4.596e-32
1.06651e-32
-4.15483e-21
-1.04759e-31
6.62228e-16
-4.93658e-16
-1.07795e-15
-9.52094e-17
-9.5836e-16
-1.691e-17
1.74017e-16
7.03835e-16
4.55451e-16
-1.38478e-20
-3.27346e-16
9.99396e-16
-3.94939e-16
-1.30402e-15
9.28398e-32
-8.44064e-16
4.31831e-17
-8.19473e-19
1.20683e-21
6.52259e-16
-1.05444e-20
1.47392e-29
-6.29324e-32
-1.92379e-15
-3.20428e-16
4.53624e-17
-8.44494e-16
-8.42241e-16
-2.47953e-16
2.01163e-33
-1.89455e-16
2.64739e-16
-4.44917e-16
-5.7286e-16
-1.13106e-15
-7.33435e-16
2.39838e-16
-1.03983e-23
-1.52039e-17
-1.20079e-15
9.68568e-16
3.94378e-17
-3.83935e-16
1.94528e-16
-1.01232e-16
9.53515e-16
7.47181e-32
-1.43331e-17
7.3025e-16
1.3045e-16
-2.19648e-18
-2.56185e-16
-1.65581e-17
1.25651e-16
8.61438e-16
-6.92777e-17
-5.53517e-19
9.7352e-16
5.46047e-16
1.59603e-31
5.43223e-18
8.72756e-16
-1.61976e-15
-4.00807e-15
1.29968e-17
-3.77164e-16
-1.02945e-16
6.42862e-32
-1.39379e-15
-1.95328e-15
1.20362e-31
-1.09686e-16
2.28943e-16
2.1094e-17
2.2972e-16
6.29633e-17
-2.6708e-32
9.61241e-19
5.44003e-33
2.22153e-16
-8.88394e-34
3.75172e-16
5.39969e-17
4.00779e-16
-6.22805e-33
-7.44013e-20
5.8021e-16
-8.06228e-16
-5.30511e-16
2.4289e-16
-4.83916e-16
-8.76723e-16
4.23973e-17
-6.03547e-16
-6.15577e-32
-3.36837e-15
-3.21747e-16
-2.60151e-19
-2.56457e-15
-1.81726e-17
1.63548e-17
1.44506e-16
4.87499e-16
-1.55659e-31
4.68059e-16
-4.48602e-17
3.59004e-16
-2.96041e-16
-2.11312e-17
9.16971e-16
1.27099e-16
5.69493e-16
-1.43209e-16
6.81676e-16
-4.6783e-15
1.47604e-16
-8.38878e-17
3.03602e-16
2.03577e-16
1.06544e-31
9.47202e-16
-4.74578e-32
-1.09773e-15
-1.23428e-15
-2.49839e-32
-5.4203e-32
7.32481e-17
4.19593e-17
-1.24207e-22
-5.63666e-15
1.34281e-32
7.6876e-17
6.11872e-16
-9.96957e-19
5.17386e-17
-1.21704e-16
5.15315e-16
-3.26813e-18
-2.15681e-16
2.0751e-16
-1.19474e-15
2.07478e-16
-7.93684e-32
8.12321e-17
1.90875e-21
-8.34133e-16
-3.92566e-15
-1.0443e-22
-6.71765e-32
-6.58856e-16
-1.16147e-15
-1.81485e-15
-2.17298e-16
-1.54204e-19
-3.79201e-16
-2.63134e-33
2.08228e-32
2.04028e-17
-2.30236e-17
-1.29513e-15
-2.73554e-15
-1.07743e-18
-2.71815e-15
1.22225e-32
2.67335e-32
1.49862e-17
1.45049e-17
-5.13173e-18
6.391e-16
-1.82857e-18
-3.76166e-30
-1.73563e-17
9.49961e-32
-3.64048e-15
-8.13796e-32
4.91709e-16
-5.13337e-18
2.14298e-16
-2.84398e-24
-4.81971e-17
5.60395e-16
9.19833e-16
-1.70427e-18
7.09929e-16
-9.86728e-16
-5.10315e-15
1.97964e-16
-1.53453e-15
3.21644e-17
-1.74351e-15
3.3069e-16
-7.57056e-16
1.31799e-16
-1.83643e-17
7.37025e-16
5.69583e-16
-9.46359e-16
-6.49378e-16
-1.27501e-15
3.7564e-18
4.94588e-17
-7.79523e-17
8.2366e-18
1.03163e-32
-8.62131e-18
-1.57896e-16
-4.23079e-16
7.49067e-16
7.08398e-16
7.16938e-21
-8.00709e-16
2.89964e-18
3.26452e-28
3.95925e-16
5.28176e-32
3.46857e-18
-2.0629e-16
-1.77963e-16
3.72025e-16
-2.29756e-16
3.85258e-16
1.70156e-31
-1.99147e-15
-3.34192e-16
2.23598e-16
9.71337e-18
-6.50009e-16
-1.78285e-31
4.979e-16
2.95736e-17
8.44571e-16
-2.37297e-15
-6.00599e-19
2.99039e-32
-2.66156e-16
-1.5056e-15
-5.84834e-15
-2.14903e-16
1.65479e-16
1.17141e-17
-1.44323e-15
9.90169e-17
-1.96605e-18
1.62918e-16
-1.35705e-15
-1.19535e-15
1.5087e-16
-1.62983e-16
-5.78657e-17
-9.21526e-16
1.36304e-17
-6.29685e-16
-4.29505e-23
-1.7042e-15
5.13747e-16
-7.63766e-16
-1.91038e-16
4.53534e-19
2.71308e-32
4.92488e-16
-2.28212e-32
-3.98676e-19
2.1571e-18
2.68676e-18
-3.57767e-16
9.26532e-18
-7.31222e-16
5.6863e-16
8.0014e-16
8.15785e-16
-7.45826e-18
6.453e-16
-1.26606e-31
1.22294e-18
-1.05714e-19
-8.07594e-17
7.77143e-16
-1.33884e-17
-1.94407e-17
-5.77918e-16
2.99891e-16
-2.41808e-16
7.5414e-17
-1.12901e-15
-1.06502e-31
6.78839e-16
-2.07576e-22
-5.52927e-22
-9.62329e-32
-1.10891e-20
1.01509e-20
-4.68704e-17
-3.03015e-16
-1.78386e-18
1.66035e-16
4.03567e-17
-1.12927e-17
-7.373e-33
-1.47488e-15
2.72638e-20
-6.64487e-16
-4.7415e-18
1.1751e-19
2.21381e-18
-3.33831e-16
-1.38722e-15
7.04012e-16
-1.48227e-15
-7.58654e-17
-3.31732e-32
8.19804e-16
-2.7905e-31
3.41227e-16
-1.63612e-15
-6.68477e-16
-1.51238e-15
-1.08954e-18
4.57921e-20
1.28806e-31
2.25253e-16
-4.02012e-16
-1.48639e-17
2.64002e-17
-1.29396e-15
-5.94699e-22
1.58775e-16
4.02131e-16
-9.6799e-16
-6.99502e-20
-5.78317e-16
-1.3866e-17
7.48746e-16
6.67014e-16
-1.01842e-15
1.01551e-16
9.05727e-20
1.78124e-16
-3.95766e-15
1.40721e-16
1.43377e-16
8.85537e-16
-2.94232e-32
1.93529e-17
5.66858e-16
5.09091e-17
2.18205e-32
1.25219e-16
-3.05738e-16
-2.08001e-16
-1.76372e-15
-2.10663e-18
2.46309e-16
1.2486e-16
3.69012e-20
-1.74926e-17
4.31309e-16
-5.60087e-16
-2.02145e-15
6.64766e-32
-3.39901e-17
-7.5872e-32
-1.85681e-15
-1.46016e-17
5.36768e-31
-1.44354e-15
-1.53191e-15
-1.0524e-18
-3.25574e-16
-1.73197e-17
2.25823e-16
-5.14539e-20
3.93676e-18
6.43099e-32
2.55212e-16
-2.04896e-26
2.85173e-17
-1.24809e-16
-8.3017e-18
-1.18555e-17
3.09258e-19
4.58913e-17
-1.10498e-16
-1.6584e-17
3.20439e-17
-7.14299e-18
6.3383e-16
2.5284e-17
-7.98272e-16
-3.27179e-15
-2.30466e-16
-1.39296e-15
1.46304e-31
-4.17861e-32
1.13589e-17
6.23298e-16
-1.29234e-15
-1.04176e-15
2.28527e-16
2.24814e-16
-3.06529e-19
7.66759e-16
4.618e-17
-2.82649e-18
2.83388e-32
-9.71385e-17
-8.59952e-16
-7.79339e-16
-5.81779e-17
5.08719e-16
-2.83052e-32
-1.77117e-16
-1.98124e-15
-9.84459e-17
-4.47903e-16
1.31329e-31
2.08459e-19
-4.45642e-32
1.66576e-16
-3.83317e-16
1.50084e-17
1.93504e-16
3.03925e-16
-4.80762e-17
2.60939e-16
1.34005e-31
-1.01134e-16
-1.14985e-16
-2.75308e-31
6.06558e-17
-1.95597e-16
4.63134e-16
-1.11926e-31
-1.38064e-16
8.66833e-20
-1.0626e-17
-8.61282e-16
-2.13157e-31
-4.70143e-16
1.63215e-16
2.90332e-22
2.22001e-17
3.45326e-16
-1.26655e-17
-1.70523e-18
5.11241e-18
5.71989e-19
-8.64126e-16
-2.18682e-17
9.70956e-16
-1.29442e-16
1.69398e-16
-1.51732e-19
-8.91219e-17
-3.28889e-24
-3.3607e-32
1.29912e-16
-1.42605e-16
-6.3168e-18
-1.38895e-17
-1.92264e-16
7.89122e-16
8.7065e-16
8.36476e-16
-1.53014e-15
-4.68998e-16
-8.16546e-16
-1.44535e-15
-6.74663e-16
3.9793e-16
1.5572e-18
-6.15471e-16
-4.20805e-16
-3.48198e-32
-2.13516e-16
-7.09756e-19
5.73406e-17
4.34785e-20
6.37878e-16
-2.6792e-31
-1.72733e-19
-1.01376e-15
-4.80321e-16
-7.09352e-19
-1.28974e-16
9.90899e-16
-1.84867e-16
-2.62636e-15
-3.75229e-16
-2.29802e-16
-1.99848e-19
-1.28445e-15
2.68557e-16
3.7454e-17
6.24827e-17
1.06109e-16
7.78311e-16
6.20415e-16
9.25635e-16
-1.07402e-15
4.01913e-16
2.71493e-16
-1.20349e-15
3.71197e-18
-1.73608e-17
8.75092e-32
-1.69359e-16
-1.2151e-15
1.99936e-22
-6.3482e-16
-2.26254e-16
3.75501e-16
4.14107e-32
2.66557e-17
2.50801e-17
-6.41e-20
9.60872e-19
-8.72037e-16
1.69943e-22
4.60827e-17
-6.7135e-17
3.27807e-32
1.05214e-16
-1.15618e-15
-1.16688e-31
2.39982e-16
-1.32208e-21
-1.04597e-17
3.73435e-16
6.38405e-32
7.88566e-20
8.79679e-32
-1.17838e-15
3.51457e-16
-1.62875e-16
-1.32276e-22
6.55759e-19
2.46671e-19
2.35072e-32
6.51048e-16
4.23869e-16
-3.50268e-32
-1.3549e-17
-1.33223e-15
-5.20332e-17
1.36616e-16
-9.33824e-33
-7.0584e-17
6.74931e-17
1.37667e-17
1.83839e-17
-2.08782e-16
5.57583e-16
-2.0864e-19
-1.14984e-18
1.12731e-20
-1.40528e-17
1.49147e-17
4.01518e-17
3.63546e-32
-7.30404e-19
-7.89536e-17
-3.45709e-20
-1.82921e-16
1.28556e-18
5.98985e-16
2.13903e-17
5.59899e-16
1.52422e-20
2.92823e-19
1.73626e-18
-2.69273e-32
-4.23308e-16
5.22874e-16
3.57828e-16
-7.99138e-19
-4.35929e-15
1.91084e-16
-1.27196e-16
-4.35403e-28
1.64366e-18
-1.19046e-16
5.90968e-16
4.6862e-16
5.50065e-24
1.08135e-16
-5.73135e-16
9.70197e-16
1.84399e-22
6.85847e-16
-1.50728e-15
4.29732e-16
-3.08826e-16
3.39089e-16
-2.12696e-31
9.42743e-32
-3.04609e-15
1.06051e-17
4.20129e-16
-9.05991e-17
7.94306e-16
8.7984e-16
1.55043e-17
-1.28966e-16
-9.71208e-16
-2.47998e-15
-3.02193e-17
-4.12751e-15
-3.27216e-16
-7.51133e-18
-2.6503e-19
-1.27786e-15
-2.22505e-15
-7.86856e-16
8.8028e-16
-7.88425e-16
8.47604e-16
-1.75895e-15
-1.87707e-18
6.11106e-16
9.61305e-16
2.02207e-17
-7.6514e-17
6.80135e-18
4.19517e-16
-1.67789e-16
3.66632e-16
-7.94475e-32
-6.5151e-16
7.0581e-20
1.29385e-16
-9.07406e-32
2.59292e-31
-1.89557e-16
-1.92979e-16
6.56792e-17
1.61382e-16
-2.32287e-21
5.67532e-17
-5.23549e-32
6.44295e-16
8.65605e-17
9.61921e-16
6.11603e-20
1.48151e-17
-4.25519e-17
1.15416e-20
1.9583e-16
-5.20189e-16
-4.85463e-22
-5.64931e-16
-5.22302e-17
-1.00138e-15
1.37004e-31
3.21119e-17
-7.93463e-18
4.9178e-16
7.76093e-16
-2.98134e-16
-1.03085e-31
8.68001e-16
1.46754e-16
1.06579e-16
-9.23908e-16
4.04667e-18
5.92844e-16
2.30785e-31
7.42594e-17
-1.49885e-15
2.33575e-16
-6.4024e-16
3.90703e-25
4.37356e-31
1.51944e-18
7.87602e-17
-6.37922e-26
-6.39655e-16
-5.41339e-16
2.49072e-16
2.11561e-31
3.50493e-16
-6.69549e-16
6.02039e-32
4.08227e-17
-2.39608e-20
-2.15254e-31
1.33555e-17
-6.59464e-16
-1.57214e-17
-3.28615e-16
-1.86646e-15
8.79061e-17
2.84727e-26
1.93366e-16
5.56472e-17
-2.88145e-17
8.91315e-16
9.56666e-16
3.98585e-16
5.18844e-16
4.46597e-21
-3.27042e-16
-8.59555e-21
2.79482e-16
-8.18265e-31
1.69762e-16
2.54731e-17
7.41254e-16
3.73823e-16
1.87121e-16
4.59961e-16
2.31041e-16
2.40374e-16
9.96344e-16
-1.62997e-17
-1.5313e-15
5.61306e-19
-3.03584e-17
-3.18387e-18
-1.67264e-16
1.91227e-18
1.35879e-16
1.88446e-17
1.13427e-16
1.15551e-16
3.63369e-19
-1.20812e-19
-8.58309e-19
2.05791e-16
1.22163e-17
1.88178e-16
-1.76887e-16
6.03037e-19
-2.89204e-17
5.13728e-17
-7.52337e-16
1.80218e-17
-1.24486e-31
-3.31978e-17
-4.30426e-17
4.83057e-18
5.91031e-24
-7.93425e-19
-3.22342e-17
-7.29663e-17
1.67715e-29
-3.827e-15
3.35547e-16
-7.49313e-32
-8.0418e-16
5.10696e-18
1.08784e-31
2.9708e-16
-4.35893e-18
-7.58176e-18
-1.85224e-15
-3.43248e-18
-2.172e-16
6.26414e-16
-2.34334e-16
3.13558e-25
4.31022e-19
1.33492e-31
9.30997e-17
-1.25492e-15
7.41784e-18
3.61195e-16
6.01999e-16
7.59294e-17
7.27675e-16
6.15094e-17
-1.25885e-15
8.09426e-17
6.05069e-22
2.26154e-24
-1.02873e-15
-7.355e-17
-1.16481e-16
-1.3246e-17
-9.69464e-18
-1.02845e-15
4.73297e-16
-1.31634e-27
6.91354e-17
8.27338e-16
-2.92705e-16
6.04578e-19
-3.47815e-17
2.22013e-19
1.08484e-16
6.62122e-20
1.94595e-16
-2.03372e-16
-1.58928e-18
6.19167e-16
4.22239e-18
-1.91145e-20
2.55951e-16
-1.79938e-17
1.00549e-17
-3.32123e-16
-1.1993e-15
-3.37751e-31
7.11751e-17
1.15707e-16
6.79411e-17
3.50019e-16
-7.89692e-32
3.85107e-16
-1.11366e-16
3.37844e-17
2.53076e-16
-9.2423e-23
-1.23382e-20
-1.09039e-15
-1.04307e-31
-1.33679e-15
5.28604e-16
7.57633e-16
-2.33572e-17
-9.13483e-17
8.80156e-17
8.06767e-20
2.6524e-16
-1.06975e-16
-9.71744e-16
1.07823e-16
-1.74998e-15
8.40902e-16
-2.49933e-16
-2.05317e-17
7.42451e-18
4.82713e-21
3.62924e-17
-1.98033e-18
-1.24038e-15
2.22996e-16
-2.15207e-31
3.28228e-33
5.82641e-16
-2.28178e-15
-1.63601e-17
-6.13406e-17
-2.14648e-16
7.20745e-17
1.02014e-16
8.65026e-18
2.55088e-16
-1.51701e-15
9.66596e-20
-2.57159e-20
-1.97347e-16
-2.47265e-16
4.83945e-16
-1.78761e-23
6.76677e-32
6.6963e-17
1.02263e-17
1.77575e-16
-2.35742e-16
-4.27617e-16
3.47207e-16
3.62533e-17
8.25817e-24
-2.81962e-16
3.07292e-32
-1.03643e-15
5.23144e-17
-1.60371e-19
-8.22804e-17
-5.45013e-16
-1.97063e-16
6.2066e-17
9.92118e-16
2.37595e-16
1.94281e-16
8.80809e-21
2.14505e-16
-9.67686e-16
-1.28373e-31
-4.03411e-16
9.61632e-16
-3.26246e-21
-6.34142e-17
-2.17206e-16
8.24673e-16
-6.97031e-33
5.66597e-16
4.43838e-16
4.08507e-16
2.07163e-18
3.88405e-30
-4.66732e-15
1.87415e-16
9.07418e-16
1.84108e-16
7.11044e-32
-6.61047e-16
-8.1567e-17
3.57658e-17
2.14744e-16
7.21192e-16
2.04195e-16
-1.1057e-31
-3.32233e-18
5.89835e-18
-3.95381e-20
-8.84655e-19
-5.82186e-17
-2.33578e-16
-4.37238e-17
-2.94189e-15
3.21274e-16
8.34163e-21
6.24867e-16
-1.35395e-16
2.1858e-16
-7.2845e-16
1.52379e-16
5.56651e-18
-1.66298e-15
-1.13962e-18
7.44964e-25
4.28001e-17
9.44841e-16
9.98576e-16
-3.38377e-15
9.06422e-32
-1.04545e-16
-3.29203e-15
9.85293e-16
9.74029e-16
1.04276e-16
1.561e-17
-2.10149e-32
-3.64149e-16
-2.63028e-28
1.00691e-16
1.38975e-17
-6.23341e-32
9.58551e-16
3.82736e-16
-5.65503e-29
2.55408e-16
1.27495e-23
-6.17694e-19
-2.7181e-15
-1.66311e-23
-7.70446e-33
3.06537e-16
-1.54771e-16
-1.96992e-16
1.33545e-17
2.52168e-16
-6.03673e-24
2.19594e-16
4.27423e-16
1.6719e-18
-4.96372e-17
-7.67958e-15
-6.93671e-16
2.03217e-16
1.14464e-20
-6.75048e-16
7.62357e-16
-1.41107e-19
0.17016
-1.74867e-15
-1.50103e-15
5.2278e-16
5.14463e-17
-1.56606e-31
-1.19458e-15
0.170033
-7.13281e-17
2.6214e-17
6.49257e-16
1.76537e-17
0.170141
8.16913e-16
0.169916
-5.87794e-16
1.39787e-17
0.17016
0.17016
-7.46051e-16
0.17016
0.17016
0.17016
0.170016
0.17016
0.168151
0.170223
3.68638e-16
-2.55906e-15
0.17016
0.168457
0.17016
0.17016
0.17016
0.17016
0.17016
0.17016
3.04641e-21
1.33866e-16
9.64133e-16
0.17016
0.17016
0.17016
0.17016
0.17016
0.169794
0.17016
0.17016
0.167956
0.169155
0.170285
2.50094e-17
-3.70166e-16
0.169169
0.168995
0.17016
0.17016
0.17016
6.23801e-17
0.167681
0.17016
0.17016
0.17016
-3.62379e-19
0.168747
0.17016
0.170164
0.17016
0.170823
7.77855e-30
6.40474e-18
-5.11172e-18
-4.96828e-28
0.170199
0.17016
0.17016
0.168866
0.17016
0.17016
5.95059e-16
-1.92114e-27
0.17016
0.169525
0.17016
0.17016
0.170175
0.17016
0.165862
0.169623
0.17016
0.170207
0.17016
0.17016
0.165699
0.17016
0.165393
0.16566
0.168746
0.170191
0.17016
-1.39785e-15
-7.6485e-16
0.165673
0.166717
0.168636
0.17016
0.17016
0.16763
0.169591
0.1705
0.165722
0.165792
0.170196
6.85405e-16
0.17016
0.17016
0.17016
0.17016
0.17016
0.17016
0.16623
0.17061
0.17016
1.03775e-17
-4.95192e-22
7.13719e-18
0.17016
0.17016
0.167393
0.17016
0.166202
0.170149
0.168459
0.17016
0.169229
0.169718
0.17016
0.17016
0.17016
0.17016
0.17016
0.17016
0.17016
0.17016
0.17016
0.169593
0.165739
0.17016
0.17016
0.17016
0.17016
0.170166
0.168596
0.167224
0.16997
0.17016
0.165079
0.168604
0.17016
0.165986
0.170161
0.168501
0.167171
0.167053
0.166864
0.167196
4.16896e-19
0.168802
0.169533
0.167439
0.165605
0.166274
0.17016
0.167506
0.169371
0.166558
0.168008
0.17016
0.17016
0.166216
0.17016
0.169449
0.17016
0.170164
0.164813
0.17016
0.166666
0.17016
0.17016
0.170238
0.166808
0.17016
0.168084
0.167933
-3.89658e-17
0.17016
0.17016
0.17016
0.168214
0.166796
0.167295
0.17016
0.167181
0.17016
0.17016
0.170342
0.17016
0.165957
0.170009
0.167363
0.17016
0.17016
0.166993
0.168444
0.17016
0.17016
1.9135e-18
0.17016
0.165999
0.17016
0.17016
0.17017
0.166483
0.169013
0.17016
0.165977
0.165373
0.168416
0.165851
0.165937
0.166092
0.166638
0.17016
0.167824
0.167848
0.17016
2.70544e-18
0.167596
0.166928
0.16884
0.167839
0.167954
0.170113
0.169529
0.17016
0.166013
0.169285
0.17016
0.166292
0.167693
0.16799
0.167422
0.168489
0.17016
0.17016
0.170196
0.167613
0.168034
0.17016
0.170611
0.168142
0.170078
0.165578
0.165203
0.17016
0.165574
0.165775
0.16658
0.165921
0.17016
0.166812
0.169505
0.168488
0.169285
0.17016
0.17016
-1.19206e-17
0.169209
0.166112
0.170237
0.17016
0.166206
0.17016
0.166571
0.166573
0.16663
0.168482
0.17016
-3.32112e-17
-4.72436e-25
0.167805
0.17016
0.170161
0.170163
0.17016
0.164468
0.17016
0.166113
0.166681
0.17016
0.166809
0.17016
0.168324
0.169765
0.17016
0.165667
0.168149
0.165995
0.167747
0.169874
0.17016
0.167325
0.16728
0.166008
0.17016
0.166164
0.17016
0.17016
0.167869
0.17016
0.167323
0.17016
0.168473
0.16922
0.17016
3.56231e-17
1.44225e-17
0.17016
0.17016
0.165656
0.16905
0.166282
0.166778
0.168857
0.165737
0.165974
0.166911
0.170176
0.166119
0.169259
0.168879
0.168726
0.167967
0.17013
0.17016
0.17016
0.17016
0.164022
0.166303
0.17016
0.17016
0.168459
0.170222
0.16529
0.170056
0.16562
0.167501
0.17016
0.17016
0.17016
1.14966e-19
0.169234
0.17016
0.17016
0.168692
0.166003
0.167902
0.166554
0.165519
0.168691
0.165923
0.16708
0.166765
0.16707
0.167962
0.166348
0.167301
0.168023
0.167723
0.167298
0.169418
0.17016
0.17016
4.2127e-16
-9.21057e-17
0.17016
0.17016
0.17016
0.17016
0.17016
0.164764
0.170164
0.17016
0.17016
0.165543
0.166728
0.17016
0.166384
0.168636
0.166833
0.166903
0.167754
0.167876
0.17016
0.17016
0.17016
6.70518e-16
0.17016
0.17016
0.17016
0.168888
0.167775
0.168901
0.166032
0.166228
0.16584
0.166019
0.17016
0.16663
0.167345
0.167527
0.167504
0.167144
0.17016
0.167093
0.17016
0.17016
0.170116
0.17016
0.17016
0.17016
0.17016
0.17016
0.169713
0.166839
0.169146
0.165299
0.165334
0.165461
0.166322
0.17016
0.166416
0.167724
0.168614
0.168481
0.17016
0.168901
0.169456
0.17016
0.17016
0.17016
0.17016
8.43536e-16
1.05687e-18
3.56737e-20
0.168772
0.168379
0.17016
0.17016
0.170171
0.17016
0.165223
0.166097
0.165575
0.166488
0.166584
0.166547
0.166737
0.16852
0.17016
0.17016
0.167867
0.167817
0.16992
0.168016
0.168413
0.17016
0.168628
0.17016
0.17016
0.17057
0.17016
0.17016
0.170196
0.169652
0.169407
0.165826
0.166938
0.170161
0.166692
0.17016
0.170206
0.166766
0.1668
0.167136
0.1671
0.167411
0.16754
0.17016
-6.59139e-16
0.17016
0.164924
0.167449
0.165948
0.164567
0.17016
0.165001
0.165434
0.167197
0.167222
0.166342
0.17016
0.166122
0.168709
0.170161
0.166355
0.17016
0.17016
0.165377
0.166285
0.17016
0.17016
0.166364
0.165562
0.17016
0.17016
0.165876
0.16738
0.17016
0.165536
0.167341
0.169103
0.1663
0.166861
0.166956
0.17016
0.166938
0.168546
0.17016
0.17016
0.17016
0.168658
0.167834
0.165318
0.166694
0.168213
0.165569
0.165972
0.165492
0.16548
0.166725
0.16713
0.17016
0.166482
0.169381
0.167116
0.167827
0.167095
0.167263
0.168708
-3.2034e-15
0.168782
0.17016
0.16901
0.169941
0.164503
0.17016
0.1681
0.165819
0.165389
0.168956
0.17016
0.165976
0.167202
0.166113
0.166775
0.165972
0.16788
0.166895
0.167867
0.17016
0.168176
0.17016
0.17016
0.168892
0.17016
0.17016
0.166136
0.16832
0.165313
0.164162
0.164245
0.17016
0.164417
0.166256
0.165518
0.165525
0.167563
0.167452
0.166651
0.167066
0.17016
0.16766
0.170165
0.17016
0.17016
-6.7827e-16
0.17016
0.17017
0.166315
0.170179
0.164738
0.17016
0.166388
0.16757
0.167079
0.165647
0.165707
0.17016
0.166362
0.168109
0.166619
0.167258
0.168198
0.169921
0.17016
0.169392
2.84116e-32
0.17016
0.166858
0.17016
0.165316
0.164537
0.168368
0.168994
0.17016
0.16984
0.167588
0.168307
0.17016
0.165827
0.166248
0.167705
0.166336
0.17016
0.166852
0.167111
0.17016
0.167683
0.169904
0.17016
0.17016
0.16991
0.167981
0.167038
0.169196
0.17016
0.164654
0.166477
0.166781
0.16641
0.167466
0.168215
0.167559
0.168409
0.168788
0.17016
0.169749
0.169142
0.17016
0.17016
1.0605e-29
0.17016
0.165443
0.169622
0.166818
0.17016
0.165088
0.165867
0.168075
0.165179
0.165739
0.166388
0.166276
0.166361
0.168093
0.167418
0.17016
0.17016
0.17016
0.17016
0.17016
-8.71241e-18
0.168905
0.17016
0.16845
0.168613
0.164479
0.17016
0.164747
0.164559
0.167731
0.16469
0.165525
0.164957
0.168966
0.167079
0.17016
0.17016
2.69513e-19
0.169058
0.17016
0.17016
0.168006
0.17016
0.17016
0.166759
0.164948
0.167411
0.17016
0.165958
0.166907
0.166801
0.17016
0.167732
0.17016
0.17016
0.17016
9.53445e-16
0.168285
0.168996
0.16822
0.169239
0.17016
0.17016
0.164835
0.167364
0.164415
0.164879
0.170186
0.164824
0.17016
0.165183
0.166086
0.165449
0.165474
0.165597
0.167707
0.17016
0.169431
0.169428
1.10423e-16
-4.82201e-16
0.166318
0.167202
0.166073
0.16723
0.165709
0.167104
0.164694
0.165841
0.170186
0.165336
0.165826
0.167912
0.1656
0.165414
0.17016
0.165642
0.166071
0.168458
0.166427
0.166898
0.167384
0.168257
0.168077
0.17016
0.17016
0.17016
-1.99997e-20
0.168527
0.167419
0.17016
0.164795
0.164571
0.17016
0.17016
0.164909
0.165533
0.166966
0.165927
0.166313
0.167719
0.166802
0.167781
9.1069e-17
0.17
0.167776
0.166745
0.168513
0.165618
0.17016
0.17016
0.165268
0.170165
0.165028
0.168476
0.169065
0.165622
0.17016
0.167688
0.165099
0.17016
0.166007
0.166878
0.170158
0.167794
0.166882
0.168367
0.168579
0.16954
0.168114
0.17016
0.169846
0.165271
0.17016
0.17016
0.17016
0.166275
0.168575
0.169737
0.17016
0.165978
0.16791
0.168779
0.17016
0.165837
0.165914
0.167546
0.169034
0.168452
0.169403
0.17016
0.17016
0.166825
0.17016
0.17016
0.17016
0.16536
0.164372
0.168961
0.16558
0.16528
0.166943
0.166098
0.17016
0.166363
0.166394
0.166838
0.166837
0.166867
0.16705
0.17016
0.16772
-2.6787e-15
0.167143
0.169392
0.170142
0.16718
0.17016
0.166115
0.165396
0.164962
0.16562
0.164822
0.169271
0.168342
0.165834
0.166079
0.16603
0.167453
0.167597
0.167027
0.168674
0.17016
0.168941
1.42387e-17
0.17016
0.165761
0.166993
0.170164
0.165788
0.166311
0.16621
0.166208
0.166823
0.167515
0.166736
0.167092
0.166912
0.167178
0.16741
0.168204
0.168725
7.82974e-16
0.17016
0.17016
0.166158
0.165881
0.17016
0.167613
0.17016
0.17016
0.164863
0.167882
0.17016
0.166855
0.169058
0.17016
0.1657
0.165838
0.166655
0.167808
0.167984
0.167303
0.167467
0.17016
0.169019
0.17016
0.17016
-9.03284e-16
0.169184
0.167171
0.17016
0.165831
0.167681
0.170174
0.17016
0.165586
0.167159
0.168411
0.164581
0.16524
0.16557
0.166792
0.165491
0.166095
0.16635
0.166779
0.165639
0.165693
0.16604
0.167435
0.170128
0.16767
0.168577
0.17016
0.169124
0.17016
0.17016
0.163866
0.17016
0.167639
0.165604
0.166226
0.164876
0.164851
0.165404
0.17016
0.165285
0.165283
0.165395
0.165539
0.167752
0.166586
0.167178
0.17016
-5.37482e-16
0.17016
0.168753
0.165229
0.170025
0.164754
0.16578
0.169383
0.17016
0.167624
0.164658
0.165861
0.167768
0.166437
0.165945
0.167323
0.167185
0.17016
0.167462
0.16837
0.168141
1.24804e-16
-6.54682e-22
0.167794
0.16848
0.164998
0.169065
0.17016
0.17016
0.164998
0.165504
0.16657
0.168223
0.165461
0.166929
0.166594
0.166243
0.166812
0.169557
0.17016
-2.5444e-17
-1.37797e-16
2.87957e-19
0.165291
0.167229
0.17016
0.169442
0.167722
0.164478
0.164313
0.169718
0.166267
0.167247
0.17016
0.165101
0.165433
0.165828
0.166286
0.166521
0.167319
0.168573
0.169721
-3.22999e-16
0.168331
0.17016
0.170174
0.166807
0.16668
0.164134
0.164795
0.165462
0.167461
0.16774
0.165823
0.168246
0.165739
0.166259
0.165992
0.167301
0.167419
0.166344
0.168439
0.168317
0.169311
4.25568e-32
0.167361
0.169889
0.164657
0.165058
0.17016
0.165586
0.169563
0.165753
0.167076
0.17016
0.165401
0.165473
0.167706
0.165533
0.17016
0.165808
0.166459
0.16821
0.17016
0.168771
0.169724
0.17016
0.17016
0.17016
0.17016
0.17016
0.17016
0.165683
0.17016
0.1682
0.164343
0.164448
0.164963
0.170164
0.165463
0.165601
0.169456
0.165466
0.165679
0.166113
0.16652
0.167586
0.166285
0.168409
0.168701
0.169238
0.17016
0.169975
0.1656
0.17016
0.17016
0.17016
0.167517
0.164638
0.164188
0.16686
0.164855
0.164858
0.165253
0.166828
0.165551
0.165791
0.165798
0.167146
0.165812
0.167628
0.16706
0.167574
0.168798
0.166679
0.16762
0.165095
0.166043
0.163919
0.164274
0.167098
0.165979
0.166923
0.166016
0.165848
0.167764
0.166944
0.167873
0.17016
0.17016
0.169126
0.17016
0.17016
0.168691
0.168131
0.163988
0.168473
0.164312
0.167343
0.164731
0.164824
0.165308
0.165889
0.166367
0.166963
0.167031
0.166357
0.17016
0.166738
0.166926
0.166918
0.169572
0.169548
0.169048
0.17016
-8.13757e-22
0.16614
0.167053
0.167228
0.164931
0.165417
0.16523
0.165113
0.165847
0.165065
0.165174
0.165729
0.166777
0.166914
0.166098
0.167151
0.168185
0.17016
0.167585
0.167106
0.170077
0.17016
0.17016
0.167941
0.16526
0.17016
0.16542
0.166294
0.17016
0.167275
0.165013
0.166287
0.166732
0.165465
0.165579
0.165734
0.168723
0.166997
0.167189
0.169712
0.168564
0.17016
0.17016
0.17016
0.17016
0.17016
0.166002
0.168207
0.167424
0.166746
0.164151
0.164521
0.164935
0.166442
0.17016
0.164822
0.165433
0.167933
0.165216
0.165827
0.165974
0.166102
0.165869
0.166956
0.167592
0.17016
0.167796
0.168069
-1.2164e-17
0.169292
0.17016
0.17016
0.165903
0.166929
0.168822
0.164621
0.164809
0.168028
0.166652
0.166048
0.166023
0.167675
0.165734
0.166974
0.17016
0.166895
0.17016
0.17016
-4.72981e-17
5.61777e-32
0.168277
0.163825
0.17016
0.166012
0.165348
0.1646
0.16426
0.164587
0.165378
0.164799
0.164863
0.164943
0.16562
0.167536
0.165502
0.165717
0.165932
0.168218
3.52175e-32
0.17016
0.17016
0.17016
0.165183
0.17016
0.170294
0.164891
0.165594
0.165893
0.166981
0.164905
0.165012
0.166033
0.165833
0.166025
0.166421
0.167858
0.167334
9.67091e-32
7.15209e-16
0.168882
0.168342
0.167001
0.165801
0.166869
0.167061
0.163851
0.166737
0.164475
0.164769
0.16522
0.17016
0.165016
0.165498
0.166337
0.166953
0.167333
-1.03796e-15
0.17016
0.166482
0.168941
0.17016
0.17016
0.167417
0.165794
0.16512
0.165727
0.17016
0.169737
0.164707
0.164763
0.165994
0.167924
0.166067
0.167912
0.166573
0.166399
0.166358
0.17016
0.16731
0.16933
0.17016
-4.99719e-17
0.167381
0.165965
0.17016
0.167171
0.17016
0.17016
0.163617
0.167447
0.169003
0.17016
0.164528
0.164997
0.17016
0.167441
0.17016
0.16453
0.165319
0.167639
0.165386
0.165837
0.166374
0.17016
0.169922
0.166218
0.17016
0.16931
0.17016
0.166205
0.17016
0.165836
0.1676
0.168273
0.168653
0.169856
0.164612
0.17016
0.165442
0.165697
0.165196
0.169006
0.165899
0.166089
0.169796
0.17016
0.166563
-1.91939e-24
-8.20961e-16
0.165959
0.17016
0.16869
0.166574
0.168544
0.165903
0.16498
0.170059
0.169157
0.16387
0.168585
0.168107
0.168732
0.165042
0.165656
0.167702
0.164518
0.165219
0.166413
0.165664
0.166991
0.165849
0.166061
0.166071
0.166535
0.167522
0.168119
0.17016
0.168019
4.9561e-16
-1.39815e-15
-1.37103e-15
-1.71292e-32
-2.34654e-16
3.32158e-16
5.83642e-32
-7.37189e-16
-6.29118e-16
8.91146e-16
4.15713e-16
-6.61861e-16
1.45285e-17
2.26428e-16
8.96114e-16
2.94754e-17
-3.92003e-16
-3.1843e-32
-3.07217e-15
5.21342e-16
-5.50253e-15
-5.09054e-16
-1.30838e-15
5.57912e-33
-1.62503e-15
7.44286e-16
-1.83276e-15
-5.83952e-17
2.70418e-16
2.11864e-32
8.85525e-16
-1.12579e-32
-9.95363e-17
6.25602e-17
-1.21816e-15
-2.37239e-16
1.27693e-31
6.14494e-16
-2.57569e-18
7.85301e-32
-5.49367e-16
3.92158e-16
-3.16278e-16
2.44217e-31
3.23864e-32
-1.3013e-15
-4.02923e-16
-1.1226e-15
-1.39188e-15
-8.78637e-16
-6.08898e-16
1.27437e-31
9.33143e-17
-1.55369e-15
5.96834e-32
-1.08145e-31
-2.27239e-16
1.73605e-31
-1.06933e-32
-7.50554e-16
2.79172e-17
3.92531e-16
-1.30375e-15
4.74703e-16
-8.5743e-16
1.6476e-16
2.37739e-16
-1.28198e-16
9.40899e-16
5.80102e-16
9.97972e-16
-5.7521e-16
-2.54125e-15
-1.15779e-15
1.77879e-16
3.21271e-16
8.14822e-16
2.28963e-16
5.26371e-28
7.86954e-16
-1.06233e-15
-9.34789e-16
-6.34013e-16
9.99364e-16
-1.40753e-15
1.98329e-16
-1.622e-32
5.77458e-16
5.31923e-16
7.93866e-16
2.54684e-20
-5.31593e-16
1.20246e-16
-4.12307e-15
-8.19363e-16
8.53998e-16
1.71573e-16
-1.84503e-16
-6.25911e-17
4.90325e-16
-8.25536e-16
-2.04732e-16
2.4015e-16
-1.87353e-16
-1.03178e-16
1.53559e-16
3.32299e-32
-8.33268e-16
9.94202e-16
-1.18189e-16
-2.2554e-15
-7.37426e-16
-1.2865e-20
-1.10945e-16
-1.14143e-17
6.88359e-17
-2.51275e-27
-3.42355e-16
7.03108e-16
-1.30072e-15
-2.19206e-19
-8.09088e-32
-1.40385e-31
-5.82172e-16
-1.30154e-15
2.26612e-16
8.22137e-16
-7.77027e-16
-5.01383e-18
-8.36061e-17
2.23314e-16
3.05888e-16
-1.22669e-15
-6.39573e-16
7.14089e-19
-3.87183e-17
-3.927e-16
-1.26083e-16
1.36783e-16
-1.77007e-16
-2.18812e-17
-2.57258e-16
3.26349e-16
-1.39419e-16
-4.30255e-16
2.5517e-17
2.61773e-16
-1.15397e-16
5.87306e-17
5.34857e-17
1.67807e-24
-1.17634e-16
1.29796e-16
5.23504e-16
-4.74e-18
-6.10478e-16
-6.21414e-21
-1.4948e-16
-1.48047e-15
9.22209e-17
-1.0045e-15
-3.94008e-16
9.05113e-33
-3.83072e-17
-5.77682e-25
-2.02706e-31
9.01497e-17
1.37968e-28
-3.81766e-17
2.9188e-16
2.49361e-26
8.12396e-16
-1.73987e-17
-4.67148e-16
-1.87956e-32
-4.65876e-18
8.14791e-19
-2.52033e-17
-3.51307e-17
-4.81225e-19
-4.762e-16
-1.91025e-17
-1.00588e-18
-6.24931e-16
-2.97873e-16
-3.43374e-19
-1.11833e-15
-1.04635e-17
-4.32715e-31
-8.94635e-16
2.43546e-17
-2.94526e-16
8.08079e-18
9.54602e-16
-2.54448e-16
-3.57004e-32
-2.89675e-15
6.51508e-19
3.13163e-32
-1.23122e-15
-1.05203e-16
-4.14203e-16
-2.66291e-17
2.29549e-17
-1.71449e-31
6.455e-16
-6.15598e-16
-6.27437e-17
8.52095e-32
1.39194e-18
-7.72242e-16
-2.08447e-15
1.03259e-17
8.64244e-17
-3.01776e-15
1.53592e-16
6.79898e-16
-4.03559e-16
-1.42338e-17
-1.68309e-31
6.93946e-21
1.84749e-16
-7.77701e-16
8.93927e-16
-4.10298e-24
-1.47659e-17
2.93285e-19
1.54803e-19
-1.64893e-17
-5.21371e-16
3.9194e-16
-2.12973e-16
6.88437e-16
6.07536e-18
-7.55339e-32
-3.37719e-19
-1.2356e-16
4.47536e-17
-4.52202e-18
-8.80858e-16
6.54339e-33
-3.7246e-25
1.42361e-19
-5.3854e-18
-4.0744e-16
5.85278e-16
7.79035e-16
2.76361e-32
9.09453e-32
4.87702e-16
-4.22721e-16
8.94589e-16
-1.44039e-15
-1.8199e-15
2.72294e-16
2.59854e-32
2.95358e-23
-2.65792e-16
-2.24736e-15
-2.32755e-16
2.77079e-20
9.05156e-16
7.95797e-16
5.34816e-17
9.9551e-16
-1.1182e-31
8.75242e-16
-5.17468e-18
-4.68547e-20
-3.28166e-15
-3.66063e-17
2.43564e-18
-1.66019e-18
-8.47613e-17
-2.67832e-16
-9.02388e-18
-3.23287e-23
1.16193e-21
2.73438e-16
8.02327e-16
7.76472e-16
-1.79142e-31
7.10142e-18
7.2911e-17
-4.23805e-16
7.91247e-17
-2.25953e-15
-8.42843e-21
-9.80349e-16
-1.75766e-19
-3.60459e-16
0.17016
0.17016
-6.60599e-19
0.17016
-6.61119e-17
0.17016
0.17016
7.35489e-18
0.170493
7.75789e-18
-1.53054e-15
-8.46362e-17
0.17016
0.17016
0.170202
0.170297
0.17041
-3.71986e-16
-8.44612e-16
0.17016
7.55247e-32
0.17016
0.17037
0.170209
0.170465
-1.987e-17
7.80348e-16
0.170208
0.170269
0.170422
0.170932
0.17174
3.12514e-16
4.19309e-16
7.23653e-16
0.17021
0.170942
0.170289
0.1702
0.170224
0.170167
0.17016
0.170243
0.170283
0.17016
0.17088
0.170459
3.11444e-16
-2.20462e-16
-2.0089e-16
0.17016
0.169141
0.175741
0.170162
0.170357
1.56436e-16