/*--------------------------------*- C++ -*----------------------------------*\
| =========                 |                                                 |
| \\      /  F ield         | OpenFOAM: The Open Source CFD Toolbox           |
|  \\    /   O peration     | Version:  v1906                                 |
|   \\  /    A nd           | Web:      www.OpenFOAM.com                      |
|    \\/     M anipulation  |                                                 |
\*---------------------------------------------------------------------------*/
FoamFile
{
    version     2.0;
    format      ascii;
    class       scalarField;
    location    "2.83/lagrangian/coalCloud1";
    object      YC2H2(g);
}
// * * * * * * * * * * * * * * * * * * * * * * * * * * * * * * * * * * * * * //


53638
(
0
0
0
0
0
0
0
0
0
0
0
0
0
0
0
0
0
0
0
0
0
0
0
0
0
0
0
0
0
0
0
0
0
0
0
0
0
0
0
0
0
0
0
0
0
0
0
0
0
0
0
0
0
0
0
0
0
0
0
0
0
0
0
0
0
0
0
0
0
0
0
0
0
0
0
0
0
0
0
0
0
0
0
0
0
0
0
0
0
0
0
0
0
0
0
0
0
0
0
0
0
0
0
0
0
0
0
0
0
0
0
0
0
0
0
0
0
0
0
0
0
0
0
0
0
0
0
0
0
0
0
0
0
0
0
0
0
0
0
0
0
0
0
0
0
0
0
0
0
0
0
0
0
0
0
0
0
0
0
0
0
0
0
0
0
0
0
0
0
0
0
0
0
0
0
0
0
0
0
0
0
0
0
0
0
0
0
0
0
0
0
0
0
0
0
0
0
0
0
0
0
0
0
0
0
0
0
0
0
0
0
0
0
0
0
0
0
0
0
0
0
0
0
0
0
0
0
0
0
0
0
0
0
0
0
0
0
0
0
0
0
0
0
0
0
0
0
0
0
0
0
0
0
0
0
0
0
0
0
0
0
0
0
0
0
0
0
0
0
0
0
0
0
0
0
0
0
0
0
0
0
0
0
0
0
0
0
0
0
0
0
0
0
0
0
0
0
0
0
0
0
0
0
0
0
0
0
0
0
0
0
0
0
0
0
0
0
0
0
0
0
0
0
0
0
0
0
0
0
0
0
0
0
0
0
0
0
0
0
0
0
0
0
0
0
0
0
0
0
0
0
0
0
0
0
0
0
0
0
0
0
0
0
0
0
0
0
0
0
0
0
0
0
0
0
0
0
0
0
0
0
0
0
0
0
0
0
0
0
0
0
0
0
0
0
0
0
0
0
0
0
0
0
0
0
0
0
0
0
0
0
0
0
0
0
0
0
0
0
0
0
0
0
0
0
0
0
0
0
0
0
0
0
0
0
0
0
0
0
0
0
0
0
0
0
0
0
0
0
0
0
0
0
0
0
0
0
0
0
0
0
0
0
0
0
0
0
0
0
0
0
0
0
0
0
0
0
0
0
0
0
0
0
0
0
0
0
0
0
0
0
0
0
0
0
0
0
0
0
0
0
0
0
0
0
0
0
0
0
0
0
0
0
0
0
0
0
0
0
0
0
0
0
0
0
0
0
0
0
0
0
0
0
0
0
0
0
0
0
0
0
0
0
0
0
0
0
0
0
0
0
0
0
0
0
0
0
0
0
0
0
0
0
0
0
0
0
0
0
0
0
0
0
0
0
0
0
0
0
0
0
0
0
0
0
0
0
0
0
0
0
0
0
0
0
0
0
0
0
0
0
0
0
0
0
0
0
0
0
0
0
0
0
0
0
0
0
0
0
0
0
0
0
0
0
0
0
0
0
0
0
0
0
0
0
0
0
0
0
0
0
0
0
0
0
0
0
0
0
0
0
0
0
0
0
0
0
0
0
0
0
0
0
0
0
0
0
0
0
0
0
0
0
0
0
0
0
0
0
0
0
0
0
0
0
0
0
0
0
0
0
0
0
0
0
0
0
0
0
0
0
0
0
0
0
0
0
0
0
0
0
0
0
0
0
0
0
0
0
0
0
0
0
0
0
0
0
0
0
0
0
0
0
0
0
0
0
0
0
0
0
0
0
0
0
0
0
0
0
0
0
0
0
0
0
0
0
0
0
0
0
0
0
0
0
0
0
0
0
0
0
0
0
0
0
0
0
0
0
0
0
0
0
0
0
0
0
0
0
0
0
0
0
0
0
0
0
0
0
0
0
0
0
0
0
0
0
0
0
0
0
0
0
0
0
0
0
0
0
0
0
0
0
0
0
0
0
0
0
0
0
0
0
0
0
0
0
0
0
0
0
0
0
0
0
0
0
0
0
0
0
0
0
0
0
0
0
0
0
0
0
0
0
0
0
0
0
0
0
0
0
0
0
0
0
0
0
0
0
0
0
0
0
0
0
0
0
0
0
0
0
0
0
0
0
0
0
0
0
0
0
0
0
0
0
0
0
0
0
0
0
0
0
0
0
0
0
0
0
0
0
0
0
0
0
0
0
0
0
0
0
0
0
0
0
0
0
0
0
0
0
0
0
0
0
0
0
0
0
0
0
0
0
0
0
0
0
0
0
0
0
0
0
0
0
0
0
0
0
0
0
0
0
0
0
0
0
0
0
0
0
0
0
0
0
0
0
0
0
0
0
0
0
0
0
0
0
0
0
0
0
0.114152
0
0
0
0
0
0
0.114068
0
0
0
0
0.11414
0
0.113989
0
0
0.114152
0.114152
0
0.114152
0.114152
0.114152
0.114056
0.114152
0.112805
0.114143
0
0
0.114152
0.11301
0.114152
0.114152
0.114152
0.114152
0.114152
0.114152
0
0
0
0.114152
0.114152
0.114152
0.114152
0.114152
0.113907
0.114152
0.114152
0.112674
0.113479
0.114135
0
0
0.113488
0.113371
0.114152
0.114152
0.114152
0
0.11249
0.114152
0.114152
0.114152
0
0.113205
0.114152
0.114152
0.114152
0.114058
0
0
0
0
0.114147
0.114152
0.114152
0.113285
0.114152
0.114152
0
0
0.114152
0.113727
0.114152
0.114152
0.11415
0.114152
0.111269
0.113792
0.114152
0.114146
0.114152
0.114152
0.11116
0.114152
0.110955
0.111134
0.113204
0.114148
0.114152
0
0
0.111142
0.111843
0.11313
0.114152
0.114152
0.112455
0.113771
0.114104
0.111176
0.111222
0.114147
0
0.114152
0.114152
0.114152
0.114152
0.114152
0.114152
0.111516
0.114088
0.114152
0
0
0
0.114152
0.114152
0.112296
0.114152
0.111497
0.114145
0.113012
0.114152
0.113528
0.113856
0.114152
0.114152
0.114152
0.114152
0.114152
0.114152
0.114152
0.114152
0.114152
0.113773
0.111187
0.114152
0.114152
0.114152
0.114152
0.114152
0.113103
0.112183
0.114025
0.114152
0.110744
0.113109
0.114152
0.111352
0.114152
0.11304
0.112148
0.112068
0.111941
0.112164
0
0.113242
0.113732
0.112327
0.111097
0.111546
0.114152
0.112372
0.113623
0.111737
0.112709
0.114152
0.114152
0.111507
0.114152
0.113676
0.114152
0.114152
0.110565
0.114152
0.111809
0.114152
0.114152
0.114141
0.111904
0.114152
0.11276
0.112659
0
0.114152
0.114152
0.114152
0.112847
0.111896
0.112231
0.114152
0.112154
0.114152
0.114152
0.114127
0.114152
0.111333
0.114051
0.112276
0.114152
0.114152
0.112028
0.113002
0.114152
0.114152
0
0.114152
0.111361
0.114152
0.114152
0.114151
0.111686
0.113384
0.114152
0.111347
0.110941
0.112983
0.111262
0.11132
0.111423
0.11179
0.114152
0.112585
0.112602
0.114152
0
0.112432
0.111985
0.113267
0.112596
0.112673
0.114121
0.113729
0.114152
0.111371
0.113566
0.114152
0.111558
0.112498
0.112697
0.112316
0.113031
0.114152
0.114152
0.114147
0.112444
0.112727
0.114152
0.114088
0.112799
0.114098
0.111079
0.110827
0.114152
0.111076
0.111211
0.111751
0.111309
0.114152
0.111907
0.113713
0.113031
0.113566
0.114152
0.114152
0
0.113515
0.111437
0.114141
0.114152
0.1115
0.114152
0.111745
0.111746
0.111785
0.113027
0.114152
0
0
0.112573
0.114152
0.114152
0.114152
0.114152
0.110334
0.114152
0.111438
0.111819
0.114152
0.111905
0.114152
0.112921
0.113888
0.114152
0.111138
0.112804
0.111358
0.112534
0.113961
0.114152
0.112251
0.112221
0.111367
0.114152
0.111472
0.114152
0.114152
0.112616
0.114152
0.112249
0.114152
0.113021
0.113522
0.114152
0
0
0.114152
0.114152
0.111131
0.113408
0.111551
0.111884
0.113279
0.111186
0.111345
0.111973
0.11415
0.111442
0.113548
0.113294
0.113191
0.112682
0.114132
0.114152
0.114152
0.114152
0.110035
0.111565
0.114152
0.114152
0.113012
0.114143
0.110885
0.114083
0.111107
0.112369
0.114152
0.114152
0.114152
0
0.113531
0.114152
0.114152
0.113168
0.111364
0.112638
0.111734
0.111039
0.113168
0.11131
0.112086
0.111875
0.11208
0.112678
0.111596
0.112235
0.112719
0.112518
0.112233
0.113655
0.114152
0.114152
0
0
0.114152
0.114152
0.114152
0.114152
0.114152
0.110533
0.114152
0.114152
0.114152
0.111056
0.111851
0.114152
0.11162
0.11313
0.111921
0.111968
0.112539
0.11262
0.114152
0.114152
0.114152
0
0.114152
0.114152
0.114152
0.113299
0.112553
0.113308
0.111383
0.111515
0.111255
0.111375
0.114152
0.111784
0.112264
0.112386
0.112371
0.11213
0.114152
0.112095
0.114152
0.114152
0.114123
0.114152
0.114152
0.114152
0.114152
0.114152
0.113853
0.111925
0.113472
0.110891
0.110915
0.111
0.111578
0.114152
0.111641
0.112518
0.113116
0.113026
0.114152
0.113308
0.113681
0.114152
0.114152
0.114152
0.114152
0
0
0
0.113221
0.112958
0.114152
0.114152
0.114151
0.114152
0.110841
0.111427
0.111077
0.111689
0.111754
0.111729
0.111856
0.113053
0.114152
0.114152
0.112614
0.112581
0.113992
0.112715
0.112981
0.114152
0.113125
0.114152
0.114152
0.114094
0.114152
0.114152
0.114147
0.113812
0.113648
0.111245
0.111991
0.114152
0.111826
0.114152
0.114146
0.111876
0.111899
0.112124
0.1121
0.112309
0.112395
0.114152
0
0.114152
0.11064
0.112334
0.111327
0.110401
0.114152
0.110692
0.110982
0.112165
0.112182
0.111591
0.114152
0.111444
0.113179
0.114152
0.1116
0.114152
0.114152
0.110944
0.111553
0.114152
0.114152
0.111606
0.111068
0.114152
0.114152
0.111278
0.112288
0.114152
0.11105
0.112262
0.113443
0.111563
0.11194
0.112003
0.114152
0.111991
0.11307
0.114152
0.114152
0.114152
0.113145
0.112593
0.110904
0.111827
0.112847
0.111073
0.111343
0.111021
0.111013
0.111848
0.11212
0.114152
0.111686
0.11363
0.112111
0.112587
0.112097
0.112209
0.113178
0
0.113228
0.114152
0.113381
0.114005
0.110358
0.114152
0.112771
0.111241
0.110952
0.113345
0.114152
0.111346
0.112169
0.111438
0.111882
0.111343
0.112623
0.111963
0.112614
0.114152
0.112822
0.114152
0.114152
0.113302
0.114152
0.114152
0.111453
0.112918
0.110901
0.110129
0.110185
0.114152
0.1103
0.111534
0.111039
0.111044
0.11241
0.112336
0.111798
0.112077
0.114152
0.112475
0.114152
0.114152
0.114152
0
0.114152
0.114151
0.111573
0.11415
0.110516
0.114152
0.111622
0.112415
0.112086
0.111125
0.111166
0.114152
0.111605
0.112777
0.111777
0.112206
0.112836
0.113992
0.114152
0.113637
0
0.114152
0.111938
0.114152
0.110903
0.110381
0.11295
0.113371
0.114152
0.113938
0.112427
0.11291
0.114152
0.111246
0.111528
0.112506
0.111588
0.114152
0.111934
0.112107
0.114152
0.112491
0.113981
0.114152
0.114152
0.113985
0.112691
0.112058
0.113506
0.114152
0.110459
0.111682
0.111886
0.111637
0.112345
0.112848
0.112408
0.112978
0.113232
0.114152
0.113877
0.11347
0.114152
0.114152
0
0.114152
0.110989
0.113792
0.111911
0.114152
0.11075
0.111273
0.112754
0.110811
0.111187
0.111623
0.111547
0.111604
0.112766
0.112313
0.114152
0.114152
0.114152
0.114152
0.114152
0
0.113311
0.114152
0.113005
0.113115
0.110342
0.114152
0.110522
0.110395
0.112523
0.110483
0.111043
0.110662
0.113352
0.112086
0.114152
0.114152
0
0.113414
0.114152
0.114152
0.112707
0.114152
0.114152
0.111871
0.110656
0.112309
0.114152
0.111334
0.11197
0.111899
0.114152
0.112524
0.114152
0.114152
0.114152
0
0.112895
0.113372
0.112851
0.113535
0.114152
0.114152
0.11058
0.112277
0.110298
0.11061
0.114149
0.110573
0.114152
0.110814
0.11142
0.110993
0.111009
0.111092
0.112507
0.114152
0.113664
0.113661
0
0
0.111575
0.112168
0.111411
0.112187
0.111167
0.112103
0.110486
0.111256
0.114149
0.110916
0.111245
0.112644
0.111094
0.110969
0.114152
0.111122
0.111409
0.113011
0.111649
0.111964
0.11229
0.112876
0.112755
0.114152
0.114152
0.114152
0
0.113057
0.112314
0.114152
0.110553
0.110403
0.114152
0.114152
0.11063
0.111048
0.11201
0.111313
0.111572
0.112515
0.1119
0.112557
0
0.114045
0.112553
0.111862
0.113048
0.111105
0.114152
0.114152
0.110871
0.114152
0.11071
0.113023
0.113418
0.111108
0.114152
0.112494
0.110758
0.114152
0.111366
0.111951
0.114151
0.112565
0.111954
0.11295
0.113092
0.113737
0.11278
0.114152
0.113942
0.110873
0.114152
0.114152
0.114152
0.111547
0.113089
0.113869
0.114152
0.111347
0.112643
0.113226
0.114152
0.111253
0.111304
0.112399
0.113397
0.113007
0.113645
0.114152
0.114152
0.111915
0.114152
0.114152
0.114152
0.110933
0.11027
0.113348
0.11108
0.110879
0.111995
0.111428
0.114152
0.111605
0.111626
0.111924
0.111924
0.111944
0.112066
0.114152
0.112516
0
0.112129
0.113637
0.11414
0.112154
0.114152
0.111439
0.110957
0.110666
0.111107
0.110572
0.113556
0.112933
0.111251
0.111415
0.111382
0.112337
0.112433
0.112051
0.113156
0.114152
0.113335
0
0.114152
0.111202
0.112028
0.114152
0.11122
0.111571
0.111503
0.111502
0.111914
0.112379
0.111856
0.112095
0.111974
0.112152
0.112308
0.11284
0.11319
0
0.114152
0.114152
0.111468
0.111282
0.114152
0.112444
0.114152
0.114152
0.110599
0.112625
0.114152
0.111935
0.113414
0.114152
0.111161
0.111253
0.111802
0.112575
0.112693
0.112236
0.112346
0.114152
0.113387
0.114152
0.114152
0
0.113498
0.112147
0.114152
0.111249
0.11249
0.11415
0.114152
0.111084
0.112139
0.112979
0.11041
0.110852
0.111073
0.111893
0.111021
0.111426
0.111597
0.111884
0.11112
0.111156
0.111389
0.112324
0.114131
0.112483
0.113091
0.114152
0.113458
0.114152
0.114152
0.10993
0.114152
0.112461
0.111096
0.111514
0.110608
0.110591
0.110962
0.114152
0.110882
0.110881
0.110956
0.111052
0.112537
0.111755
0.112152
0.114152
0
0.114152
0.113209
0.110845
0.114062
0.110526
0.111215
0.113631
0.114152
0.112451
0.110462
0.111268
0.112548
0.111655
0.111325
0.112249
0.112157
0.114152
0.112343
0.112952
0.112798
0
0
0.112565
0.113026
0.110689
0.113418
0.114152
0.114152
0.11069
0.111029
0.111744
0.112853
0.111
0.111985
0.11176
0.111525
0.111906
0.113748
0.114152
0
0
0
0.110887
0.112186
0.114152
0.113671
0.112517
0.110341
0.11023
0.113856
0.111541
0.112199
0.114152
0.110759
0.110982
0.111247
0.111554
0.111711
0.112247
0.113088
0.113858
0
0.112926
0.114152
0.11415
0.111904
0.111818
0.11011
0.110553
0.111001
0.112342
0.112529
0.111243
0.112869
0.111187
0.111536
0.111357
0.112235
0.112314
0.111593
0.112998
0.112916
0.113583
0
0.112275
0.113971
0.110461
0.11073
0.114152
0.111084
0.113752
0.111196
0.112084
0.114152
0.11096
0.111009
0.112506
0.111049
0.114152
0.111233
0.11167
0.112845
0.114152
0.113221
0.11386
0.114152
0.114152
0.114152
0.114152
0.114152
0.114152
0.111149
0.114152
0.112838
0.110251
0.110321
0.110666
0.114152
0.111002
0.111094
0.11368
0.111004
0.111146
0.111438
0.111711
0.112426
0.111553
0.112978
0.113174
0.113534
0.114152
0.114029
0.111094
0.114152
0.114152
0.114152
0.11238
0.110448
0.110146
0.111939
0.110594
0.110596
0.110861
0.111918
0.111061
0.111222
0.111226
0.112131
0.111236
0.112454
0.112073
0.112418
0.113239
0.111817
0.112448
0.110755
0.111391
0.109966
0.110204
0.112099
0.111348
0.111981
0.111373
0.11126
0.112545
0.111995
0.112618
0.114152
0.114152
0.113459
0.114152
0.114152
0.113167
0.112792
0.110012
0.113021
0.11023
0.112263
0.110511
0.110573
0.110898
0.111287
0.111608
0.112008
0.112054
0.111601
0.114152
0.111857
0.111983
0.111978
0.113758
0.113742
0.113407
0.114152
0
0.111456
0.112069
0.112186
0.110644
0.110971
0.110845
0.110767
0.111259
0.110734
0.110808
0.11118
0.111883
0.111975
0.111428
0.112134
0.112828
0.114152
0.112425
0.112104
0.114097
0.114152
0.114152
0.112664
0.110866
0.114152
0.110973
0.111559
0.114152
0.112218
0.1107
0.111554
0.111853
0.111003
0.11108
0.111183
0.113189
0.112031
0.112159
0.113852
0.113082
0.114152
0.114152
0.114152
0.114152
0.114152
0.111364
0.112843
0.112317
0.111862
0.110121
0.11037
0.110647
0.111659
0.114152
0.110572
0.110981
0.112659
0.110836
0.111246
0.111345
0.11143
0.111274
0.112003
0.11243
0.114152
0.112567
0.11275
0
0.113571
0.114152
0.114152
0.111297
0.111985
0.113255
0.110437
0.110563
0.112723
0.111799
0.111394
0.111377
0.112486
0.111183
0.112015
0.114152
0.111963
0.114152
0.114152
0
0
0.112889
0.109903
0.114152
0.11137
0.110924
0.110423
0.110195
0.110414
0.110945
0.110556
0.110599
0.110653
0.111107
0.112393
0.111028
0.111172
0.111316
0.11285
0
0.114152
0.114152
0.114152
0.110814
0.114152
0.114133
0.110618
0.11109
0.11129
0.11202
0.110627
0.110699
0.111384
0.11125
0.111379
0.111644
0.112608
0.112257
0
0
0.113295
0.112933
0.112033
0.111228
0.111945
0.112074
0.10992
0.111856
0.110339
0.110536
0.110839
0.114152
0.110702
0.111025
0.111588
0.112002
0.112256
0
0.114152
0.111685
0.113335
0.114152
0.114152
0.112312
0.111223
0.110771
0.111178
0.114152
0.113869
0.110495
0.110532
0.111358
0.112653
0.111407
0.112644
0.111746
0.111629
0.111602
0.114152
0.11224
0.113596
0.114152
0
0.112288
0.111338
0.114152
0.112148
0.114152
0.114152
0.109763
0.112332
0.113377
0.114152
0.110375
0.110689
0.114152
0.112329
0.114152
0.110376
0.110905
0.112462
0.11095
0.111252
0.111613
0.114152
0.113993
0.111508
0.114152
0.113582
0.114152
0.111499
0.114152
0.111252
0.112435
0.112887
0.113142
0.113949
0.110431
0.114152
0.110988
0.111158
0.110822
0.113378
0.111294
0.111422
0.113908
0.114152
0.111739
0
0
0.111334
0.114152
0.113166
0.111747
0.113069
0.111297
0.110678
0.114085
0.11348
0.109933
0.113096
0.112775
0.113194
0.110719
0.111131
0.112504
0.110368
0.110838
0.111639
0.111137
0.112027
0.111261
0.111403
0.11141
0.111721
0.112383
0.112783
0.114152
0.112716
0
0
0
0
0
0
0
0
0
0
0
0
0
0
0
0
0
0
0
0
0
0
0
0
0
0
0
0
0
0
0
0
0
0
0
0
0
0
0
0
0
0
0
0
0
0
0
0
0
0
0
0
0
0
0
0
0
0
0
0
0
0
0
0
0
0
0
0
0
0
0
0
0
0
0
0
0
0
0
0
0
0
0
0
0
0
0
0
0
0
0
0
0
0
0
0
0
0
0
0
0
0
0
0
0
0
0
0
0
0
0
0
0
0
0
0
0
0
0
0
0
0
0
0
0
0
0
0
0
0
0
0
0
0
0
0
0
0
0
0
0
0
0
0
0
0
0
0
0
0
0
0
0
0
0
0
0
0
0
0
0
0
0
0
0
0
0
0
0
0
0
0
0
0
0
0
0
0
0
0
0
0
0
0
0
0
0
0
0
0
0
0
0
0
0
0
0
0
0
0
0
0
0
0
0
0
0
0
0
0
0
0
0
0
0
0
0
0
0
0
0
0
0
0
0
0
0
0
0
0
0
0
0
0
0
0
0
0
0
0
0
0
0
0
0
0
0
0
0
0
0
0
0
0
0
0
0
0
0
0
0
0
0
0
0
0
0
0
0
0
0
0
0
0
0
0
0
0
0
0
0
0
0
0
0
0
0
0
0
0
0
0.114152
0.114152
0
0.114152
0
0.114152
0.114152
0
0.114105
0
0
0
0.114152
0.114152
0.114146
0.114133
0.114117
0
0
0.114152
0
0.114152
0.114123
0.114145
0.114109
0
0
0.114146
0.114137
0.114115
0.114043
0.113928
0
0
0
0.114145
0.114041
0.114134
0.114147
0.114143
0.114151
0.114152
0.114141
0.114135
0.114152
0.11405
0.11411
0
0
0
0.114152
0.113469
0.11336
0.114152
0.114124
0
0.11412
0.113892
0
0
0.114152
0.114152
0.114152
0.113655
0
0.114152
0.114149
0.113929
0.114152
0.114152
0.114152
0.114151
0
0.114151
0.114152
0.113942
0.114152
0
0
0
0
0.114152
0.114097
0.113992
0.114152
0.114149
0.114142
0.113263
0.114152
0.114149
0.114152
0.114152
0.11271
0.114152
0.114152
0.114095
0.113994
0.114152
0.114152
0.113541
0.113805
0.114152
0.114152
0.114152
0.114152
0.114152
0.114152
0.11413
0.114078
0.114152
0.114152
0.114152
0.11413
0.114123
0.114146
0.114131
0.114152
0.11411
0.114142
0.114152
0.114152
0.114152
0.114151
0.111415
0.114152
0.114136
0
0.114145
0.114149
0.11415
0.114152
0.114017
0.11411
0.114152
0.114144
0.114152
0.114152
0.114152
0.114152
0.114152
0.114152
0.114152
0.114145
0.114116
0.11415
0.114152
0.114138
0.11413
0.114152
0.113826
0.114152
0.11407
0
0.114147
0.114027
0.114117
0.114152
0.114142
0.114152
0.114152
0.114152
0.112193
0.114152
0.11415
0.114152
0.114152
0.114152
0.114139
0.114092
0.113896
0.114064
0.114152
0.114137
0.114152
0.114152
0.114152
0
0
0
0
0
0.114145
0.114127
0.113195
0.114152
0.114152
0.114084
0
0.114152
0.114146
0.114152
0.114152
0.113934
0.114152
0.114106
0.114152
0.112598
0.114152
0.114149
0.114149
0.114152
0.114152
0.113732
0.114152
0.114027
0.114152
0.114152
0.114152
0.114152
0.11415
0.114152
0.114152
0.114152
0
0.114152
0.114152
0.114135
0.114152
0.11414
0.11415
0.114103
0.113197
0.114148
0.114152
0.114148
0
0.114141
0.114144
0.114146
0.114152
0.114152
0.114088
0.114152
0.114152
0.114152
0.114152
0.113141
0.114017
0.114152
0.11415
0.114151
0.114152
0.114152
0
0.114152
0.114152
0.113534
0.114152
0.114152
0.114152
0.114152
0.114083
0.113868
0.114152
0.114152
0.114152
0.114152
0.114152
0.114147
0.114152
0
0.114152
0.114152
0.11413
0.114152
0.114152
0.114091
0.114076
0.114141
0.114151
0.114152
0.11279
0.114051
0.114152
0.11412
0.114152
0.114146
0
0.114146
0.114141
0.114104
0.114083
0.114152
0.114152
0.111308
0.113918
0.112929
0.111771
0.113297
0.114152
0.11262
0.114152
0.114152
0.113933
0.114152
0.114152
0.114152
0.114152
0.114152
0.114152
0
0
0.11415
0.114069
0.114074
0.1124
0.114152
0.11415
0.112206
0.113717
0.11309
0.114152
0.114152
0.113928
0.114152
0.114152
0.114152
0.114152
0.114152
0.114152
0.114152
0.112563
0.113971
0.114152
0.114152
0.113415
0.114152
0.114152
0.114145
0.114152
0.114152
0.113223
0.114152
0.114152
0.114152
0.114152
0.114152
0.114152
0.114152
0.114152
0.114152
0.114152
0
0
0.114135
0.114146
0.114152
0.114146
0.113828
0.114152
0.114152
0.114152
0.114152
0.11248
0.11287
0.114146
0.114152
0.112941
0.114053
0.113138
0.114152
0.114152
0.114152
0.114152
0.114152
0.114152
0.114152
0.114152
0.114152
0.114151
0.114148
0.114152
0.114149
0.114148
0.114149
0.114152
0.114152
0.114152
0.111887
0.114016
0.113788
0.114145
0.113276
0.112364
0.113574
0.11302
0.114119
0.114152
0.114152
0.114152
0.114152
0.114152
0.114152
0.114152
0.114148
0.114152
0.11415
0.11415
0.1141
0.113105
0.113042
0.111929
0.11395
0.112248
0.113982
0.114152
0.114152
0.114152
0.11325
0.114152
0.114152
0.114152
0.114152
0.113261
0.114152
0.114152
0.114152
0.114152
0.114152
0.114152
0.114152
0.114152
0.114152
0.114152
0.11415
0
0.114152
0.114085
0.114152
0.112756
0.113279
0.113872
0.11263
0.113474
0.114152
0.114151
0.114152
0.114152
0.114152
0.114152
0.114152
0.114152
0.114152
0.114152
0.114152
0.114152
0
0
0.114152
0.114152
0.114106
0.114056
0.114152
0.114152
0.113532
0.114152
0.11162
0.114152
0.114152
0.114152
0
0
0
0
0.114152
0.114152
0.114136
0.114142
0.114152
0.113547
0.113413
0.112844
0.114152
0.113911
0.112965
0.114152
0.11358
0.114152
0.114152
0.114152
0.114152
0.114152
0.114152
0
0
0
0.114141
0.114152
0.114152
0.114152
0.114152
0.113499
0.112499
0.112103
0.114152
0.114152
0.114152
0.114139
0.114152
0.113321
0.114152
0.114152
0.114152
0.114152
0.114146
0.114152
0.114152
0.114148
0
0
0.114152
0.114089
0.114092
0.114148
0.114149
0.111707
0.114152
0.112126
0.112253
0.113317
0.113807
0.114152
0.114152
0.114152
0.114145
0.114152
0.114152
0.114152
0.114152
0
0.114135
0.114097
0.114152
0.11289
0.112663
0.114152
0.114152
0.113143
0.113071
0.114087
0.114152
0.114152
0.114152
0.114152
0
0
0.114152
0.114152
0.114152
0.114108
0.114152
0.114152
0.112729
0.114135
0.113034
0.114126
0.113286
0.114152
0.114152
0.114152
0.113149
0.114152
0.114152
0.114152
0.114152
0.114152
0.114152
0.114152
0.114152
0
0.114152
0.114017
0.114076
0.114082
0.114152
0.114152
0.114097
0.114152
0.114019
0.114152
0.112667
0.112865
0.113875
0.114152
0.114152
0.11415
0.114152
0
0.114152
0.114149
0.114131
0.114049
0.11414
0.114151
0.114151
0.114148
0.114152
0.114133
0.114124
0.114152
0.114152
0.114152
0.114152
0.112638
0.114152
0.114004
0.114152
0.114152
0.114152
0.114152
0.114152
0
0
0
0.114152
0.114152
0.114031
0.114148
0.114152
0.112361
0.11387
0.114147
0.113577
0.114152
0.114152
0.114152
0.114152
0.114152
0.114152
0.114152
0
0
0
0.114151
0.114066
0.114152
0.112612
0.114152
0.114152
0.112008
0.11415
0.113657
0.114151
0.112593
0.112145
0.113566
0.113942
0.11345
0.114152
0.114151
0.114152
0.114152
0.114152
0.114152
0.114152
0
0.114071
0.11408
0.114152
0.114152
0.114152
0.113001
0.114152
0.114152
0.112632
0.114152
0.114152
0.113543
0.114152
0.114152
0.114152
0.114152
0.114152
0.114152
0.114152
0.114152
0.114149
0
0
0.114152
0.114152
0.11415
0.114117
0.114152
0.114079
0.114152
0.114108
0.113324
0.11415
0.114152
0.113524
0.112843
0.114152
0.114152
0.114152
0.114151
0.114152
0.114151
0.114152
0.114147
0.114152
0.114141
0.114152
0.114152
0.111922
0.111828
0.114152
0.112856
0.112969
0.114152
0.114152
0.113411
0.1134
0.114152
0.114152
0.114152
0.114152
0.114152
0
0
0.114152
0.113987
0.114152
0.114152
0.114152
0.111742
0.114152
0.114152
0.112382
0.114152
0.114149
0.112071
0.114149
0.114144
0.114152
0.114065
0.114149
0.114152
0.114152
0
0
0.114152
0.11415
0.113608
0.114133
0.114149
0.114133
0.112794
0.112193
0.111545
0.113871
0.114129
0.112213
0.114152
0.113417
0.114152
0.114151
0.114152
0
0
0.114148
0.114152
0.114136
0.114152
0.113211
0.113946
0.114152
0.114152
0.114152
0.113443
0.113924
0.114152
0.114152
0.113261
0.113072
0.113822
0.114152
0.114152
0.11415
0.114152
0.114152
0.114152
0.114152
0.110721
0.114152
0.114133
0.114148
0.111972
0.112502
0.111455
0.114152
0.114152
0.114152
0.114152
0.114152
0.113666
0.114152
0.114152
0.114152
0.114152
0.114152
0.114152
0.114152
0
0
0
0.114152
0.11415
0.111598
0.114115
0.114152
0.11134
0.111728
0.112923
0.114152
0.114111
0.114152
0.114152
0.114152
0.114152
0.114152
0
0.114152
0.114152
0.114144
0.114152
0.114152
0.113028
0.111837
0.111866
0.111796
0.111809
0.112879
0.112757
0.112038
0.112216
0.11234
0.114118
0.114146
0.113958
0.114152
0.113982
0.114152
0.114152
0.114152
0.114152
0.114152
0.114152
0.114152
0.114152
0.114152
0.114152
0.114151
0.114152
0
0.114152
0.114145
0.114149
0.114151
0.114152
0.114152
0.114149
0.114152
0.114152
0.11394
0.112568
0.111767
0.114053
0.114152
0.113619
0.113668
0.114152
0.114152
0.114152
0.11387
0.114152
0.114152
0.114152
0
0.114152
0.114152
0.112862
0.114152
0.111844
0.113458
0.114152
0.114152
0.113593
0.113359
0.114147
0.114152
0.114152
0.114152
0.114152
0
0.114152
0.114151
0.114149
0.114057
0.11412
0.114152
0.114152
0.114152
0.111516
0.112272
0.113442
0.114152
0.114152
0.114152
0.11379
0.112904
0.112848
0.114152
0.114152
0.114152
0.114152
0.114152
0.114152
0.114152
0.114152
0.114152
0.114152
0.114152
0
0.114127
0.114043
0.114138
0.114088
0.11415
0.114152
0.114152
0.112413
0.11407
0.114152
0.114152
0.114152
0.114152
0.114152
0
0.114152
0.11415
0.114152
0.113907
0.114051
0.114152
0.114148
0.114093
0.112328
0.111569
0.112956
0.114151
0.114152
0.114152
0.114152
0.114152
0.114152
0.114152
0.114152
0.114152
0.114152
0.114152
0.114152
0.114152
0.114152
0.114125
0.114152
0.114151
0.112778
0.114152
0.112388
0.112066
0.112671
0.113209
0.113937
0.113632
0.114152
0.114152
0.114152
0.114152
0.114152
0.114152
0
0
0.114152
0.114152
0.114152
0.114152
0.114152
0.114152
0.111665
0.114152
0.113724
0.11407
0.114152
0.114061
0.11149
0.113446
0.114152
0.114152
0.114152
0.112179
0.114134
0.114152
0.113982
0.11319
0.114152
0.114152
0.113829
0.114038
0.114152
0.114147
0
0.114152
0.114152
0.114152
0.111609
0.111815
0.112676
0.114152
0.112143
0.113514
0.114152
0.114152
0.114152
0.113998
0.114152
0.113337
0.114152
0.114152
0.114149
0.114152
0.11415
0.114152
0.114152
0
0.114152
0.114152
0.114152
0.114152
0.114152
0.114151
0.114141
0.112456
0.111311
0.114152
0.114152
0.112942
0.112792
0.114152
0.114152
0.113906
0.114152
0.114152
0.114152
0.114152
0.114152
0.114152
0.114152
0
0
0.113417
0.114152
0.114152
0.114152
0.11222
0.112704
0.112001
0.113403
0.114152
0.111711
0.113597
0.112873
0.112655
0.112778
0.113739
0.114152
0.114152
0.114152
0.114152
0.114152
0.114152
0.114152
0.114152
0.114152
0.114152
0.114071
0.112944
0.114118
0.113692
0.114152
0.111113
0.113788
0.114152
0.114152
0.114152
0.114152
0.112313
0.113189
0.111861
0.113928
0.114152
0.113935
0.113372
0.114152
0.114152
0.114152
0
0
0
0.112933
0.114149
0.113194
0.112762
0.113106
0.112554
0.112766
0.114152
0.113615
0.114152
0.114152
0.114152
0.114123
0.114152
0.114152
0.11415
0.114152
0.114152
0.114151
0.114006
0.114152
0.111166
0.113009
0.114152
0.113659
0.112278
0.112277
0.114152
0.114152
0.114152
0.114152
0.114152
0.114152
0.114151
0.114152
0.114131
0.114148
0.114149
0.113066
0.114114
0.114152
0.114152
0.111262
0.114152
0.114152
0.112547
0.113553
0.114152
0.114152
0.114152
0.114152
0
0.114151
0.114137
0.114069
0.114142
0.112243
0.112564
0.114152
0.111517
0.112592
0.114152
0.113743
0.111777
0.112186
0.114152
0.113582
0.114151
0.114134
0.114152
0.114152
0.114152
0.114152
0.114152
0.111647
0.114152
0.11117
0.111471
0.114152
0.114152
0.112584
0.114152
0.114152
0.113948
0.113225
0.114152
0.114152
0.114152
0.114152
0.114152
0.114152
0.114152
0
0.111921
0.114152
0.114152
0.114152
0.113199
0.114152
0.114152
0.112944
0.114134
0.114152
0.11358
0.114152
0.112701
0.113778
0.114152
0.112978
0.113186
0.113448
0.113759
0.113894
0.114152
0.114152
0.114152
0.114152
0
0.114152
0.114152
0.114152
0.114152
0.114152
0.113031
0.114151
0.113242
0.112768
0.11181
0.112172
0.113162
0.112565
0.111976
0.1124
0.113406
0.114152
0.114152
0.114152
0.114152
0.114127
0.112312
0.112552
0.114152
0.114152
0.111597
0.112136
0.114152
0.111651
0.111905
0.112504
0.112433
0.112443
0.113102
0.114152
0.114152
0.112803
0.114074
0.114152
0.114152
0.114152
0.114152
0.114152
0.114152
0.113713
0.111592
0.113996
0.114152
0.114152
0.112776
0.114152
0.111728
0.11414
0.112498
0.112861
0
0
0
0.114152
0.114152
0.114128
0.110928
0.11127
0.113619
0.111472
0.112207
0.1119
0.111983
0.114152
0.113773
0.114152
0.114152
0.114152
0.114152
0.114152
0.114152
0.114152
0.114152
0.114149
0.114152
0.114152
0.114152
0.113765
0.114152
0.114152
0.112684
0.114152
0.114152
0.11334
0.114152
0.113862
0.111901
0.112093
0.114152
0.114152
0.114152
0.114152
0.114152
0.114152
0
0.114152
0.112545
0.114152
0.114152
0.114149
0.114152
0.114152
0.114152
0.114152
0.113748
0.111969
0.111858
0.112682
0.114152
0.112103
0.11258
0.112615
0.114152
0.112897
0.114152
0.114152
0.114152
0
0.114152
0.114152
0.114133
0.114144
0.111184
0.113325
0.110789
0.114152
0.114152
0.114152
0.114152
0.112498
0.112092
0.113522
0.112443
0.113285
0.114152
0.113036
0.113371
0.114152
0.114152
0.114152
0.114152
0.114152
0
0
0.114152
0.114146
0.114142
0.114152
0.114152
0.114076
0.113048
0.114152
0.11204
0.112375
0.112837
0.111956
0.113051
0.112103
0.112422
0.112565
0.112702
0.114152
0.114152
0.114152
0.114152
0.114152
0.114152
0.114152
0.114152
0.111903
0.112499
0.11415
0.114152
0.114152
0.114151
0.113239
0.113621
0.11233
0.112701
0.114152
0.114152
0.114152
0
0.114152
0.114152
0.114148
0.114152
0.114152
0.114141
0.112255
0.114067
0.11148
0.111375
0.113282
0.113793
0.111512
0.112619
0.111944
0.112732
0.112836
0.112197
0.114152
0.114152
0.113307
0.113849
0.114152
0.113113
0.114152
0.114152
0.114152
0
0.114152
0.114152
0.114152
0.114152
0.111077
0.113904
0.114152
0.112557
0.114152
0.114152
0.111053
0.11415
0.114152
0.111313
0.112127
0.114152
0.114152
0.114152
0.11365
0.114152
0.113761
0.114152
0
0
0
0
0.114152
0.114152
0.114083
0.114061
0.114152
0.114044
0.112052
0.111971
0.111554
0.112102
0.113507
0.114152
0.114152
0.114152
0.114152
0.114152
0.114152
0.114152
0.114152
0.113213
0.114152
0.114152
0.112408
0.114152
0.111475
0.114152
0.11179
0.1125
0.114152
0.11311
0.113367
0.114152
0.114152
0.114152
0
0
0.114013
0.114152
0.114152
0.114151
0.114137
0.114152
0.11317
0.114146
0.110866
0.114152
0.114152
0.114152
0.111245
0.1115
0.114152
0.114152
0.112155
0.114152
0.112147
0.114152
0.114152
0.114152
0.113444
0.113189
0.112685
0.114095
0.114152
0.114152
0.114152
0.114152
0
0
0.114152
0.114152
0.114152
0.114152
0.114147
0.114152
0.113159
0.114152
0.111881
0.114138
0.113588
0.113527
0.111576
0.111815
0.111886
0.111905
0.112381
0.112437
0.113413
0.114152
0.114152
0
0.114152
0.114152
0.114152
0.114152
0.114152
0.114151
0.114152
0.110816
0.112151
0.113735
0.112486
0.112671
0.111896
0.112657
0.112866
0.114152
0.113573
0.114152
0.114152
0.114152
0
0
0.113943
0.113958
0.113832
0.11355
0.111155
0.112982
0.111331
0.111793
0.112848
0.111616
0.112002
0.112129
0.112359
0.112974
0.112647
0.113065
0.114152
0.114152
0.114152
0.114005
0.114152
0.114152
0.114152
0.114152
0.114152
0.114152
0.114152
0.114145
0.114152
0.114152
0.112438
0.114152
0.112573
0.111706
0.11215
0.112385
0.114152
0.114152
0.113798
0.113771
0.114152
0.114132
0.114152
0.114137
0.114123
0.114138
0.112343
0.112726
0.114152
0.112798
0.114152
0.113545
0.113444
0.112054
0.114152
0.114152
0.11151
0.111718
0.112086
0.11191
0.112261
0.114152
0.114152
0
0.114152
0.114152
0.110855
0.112515
0.114152
0.113846
0.112217
0.111559
0.111798
0.114139
0.112123
0.114152
0.114152
0.112278
0.112933
0.114152
0.114152
0.114152
0
0.114152
0.114152
0.113259
0.114152
0.114152
0.114152
0.112031
0.114152
0.114152
0.114152
0.111554
0.112691
0.112541
0.11234
0.113562
0.114152
0.11404
0.114152
0.114152
0.114152
0.114148
0.114152
0.114152
0.114038
0.114152
0.114152
0.112305
0.111439
0.112855
0.112396
0.112491
0.114152
0.112778
0.114152
0.114152
0.113455
0.114152
0.114152
0.114152
0.114147
0.11201
0.113306
0.114152
0.114152
0.113862
0.114141
0.114152
0.111828
0.113028
0.114152
0.111994
0.112903
0.114152