/*--------------------------------*- C++ -*----------------------------------*\
| =========                 |                                                 |
| \\      /  F ield         | OpenFOAM: The Open Source CFD Toolbox           |
|  \\    /   O peration     | Version:  v1906                                 |
|   \\  /    A nd           | Web:      www.OpenFOAM.com                      |
|    \\/     M anipulation  |                                                 |
\*---------------------------------------------------------------------------*/
FoamFile
{
    version     2.0;
    format      ascii;
    class       scalarField;
    location    "2.83/lagrangian/coalCloud1";
    object      YCH4(g);
}
// * * * * * * * * * * * * * * * * * * * * * * * * * * * * * * * * * * * * * //


53638
(
0
0
0
0
0
0
0
0
0
0
0
0
0
0
0
0
0
0
0
0
0
0
0
0
0
0
0
0
0
0
0
0
0
0
0
0
0
0
0
0
0
0
0
0
0
0
0
0
0
0
0
0
0
0
0
0
0
0
0
0
0
0
0
0
0
0
0
0
0
0
0
0
0
0
0
0
0
0
0
0
0
0
0
0
0
0
0
0
0
0
0
0
0
0
0
0
0
0
0
0
0
0
0
0
0
0
0
0
0
0
0
0
0
0
0
0
0
0
0
0
0
0
0
0
0
0
0
0
0
0
0
0
0
0
0
0
0
0
0
0
0
0
0
0
0
0
0
0
0
0
0
0
0
0
0
0
0
0
0
0
0
0
0
0
0
0
0
0
0
0
0
0
0
0
0
0
0
0
0
0
0
0
0
0
0
0
0
0
0
0
0
0
0
0
0
0
0
0
0
0
0
0
0
0
0
0
0
0
0
0
0
0
0
0
0
0
0
0
0
0
0
0
0
0
0
0
0
0
0
0
0
0
0
0
0
0
0
0
0
0
0
0
0
0
0
0
0
0
0
0
0
0
0
0
0
0
0
0
0
0
0
0
0
0
0
0
0
0
0
0
0
0
0
0
0
0
0
0
0
0
0
0
0
0
0
0
0
0
0
0
0
0
0
0
0
0
0
0
0
0
0
0
0
0
0
0
0
0
0
0
0
0
0
0
0
0
0
0
0
0
0
0
0
0
0
0
0
0
0
0
0
0
0
0
0
0
0
0
0
0
0
0
0
0
0
0
0
0
0
0
0
0
0
0
0
0
0
0
0
0
0
0
0
0
0
0
0
0
0
0
0
0
0
0
0
0
0
0
0
0
0
0
0
0
0
0
0
0
0
0
0
0
0
0
0
0
0
0
0
0
0
0
0
0
0
0
0
0
0
0
0
0
0
0
0
0
0
0
0
0
0
0
0
0
0
0
0
0
0
0
0
0
0
0
0
0
0
0
0
0
0
0
0
0
0
0
0
0
0
0
0
0
0
0
0
0
0
0
0
0
0
0
0
0
0
0
0
0
0
0
0
0
0
0
0
0
0
0
0
0
0
0
0
0
0
0
0
0
0
0
0
0
0
0
0
0
0
0
0
0
0
0
0
0
0
0
0
0
0
0
0
0
0
0
0
0
0
0
0
0
0
0
0
0
0
0
0
0
0
0
0
0
0
0
0
0
0
0
0
0
0
0
0
0
0
0
0
0
0
0
0
0
0
0
0
0
0
0
0
0
0
0
0
0
0
0
0
0
0
0
0
0
0
0
0
0
0
0
0
0
0
0
0
0
0
0
0
0
0
0
0
0
0
0
0
0
0
0
0
0
0
0
0
0
0
0
0
0
0
0
0
0
0
0
0
0
0
0
0
0
0
0
0
0
0
0
0
0
0
0
0
0
0
0
0
0
0
0
0
0
0
0
0
0
0
0
0
0
0
0
0
0
0
0
0
0
0
0
0
0
0
0
0
0
0
0
0
0
0
0
0
0
0
0
0
0
0
0
0
0
0
0
0
0
0
0
0
0
0
0
0
0
0
0
0
0
0
0
0
0
0
0
0
0
0
0
0
0
0
0
0
0
0
0
0
0
0
0
0
0
0
0
0
0
0
0
0
0
0
0
0
0
0
0
0
0
0
0
0
0
0
0
0
0
0
0
0
0
0
0
0
0
0
0
0
0
0
0
0
0
0
0
0
0
0
0
0
0
0
0
0
0
0
0
0
0
0
0
0
0
0
0
0
0
0
0
0
0
0
0
0
0
0
0
0
0
0
0
0
0
0
0
0
0
0
0
0
0
0
0
0
0
0
0
0
0
0
0
0
0
0
0
0
0
0
0
0
0
0
0
0
0
0
0
0
0
0
0
0
0
0
0
0
0
0
0
0
0
0
0
0
0
0
0
0
0
0
0
0
0
0
0
0
0
0
0
0
0
0
0
0
0
0
0
0
0
0
0
0
0
0
0
0
0
0
0
0
0
0
0
0
0
0
0
0
0
0
0
0
0
0
0
0
0
0
0
0
0
0
0
0
0
0
0
0
0
0
0
0
0
0
0
0
0
0
0
0
0
0
0
0
0
0
0
0
0
0
0
0
0
0
0
0
0
0
0
0
0
0
0
0
0
0
0
0
0
0
0
0
0
0
0
0
0
0
0
0
0
0
0
0
0
0
0
0
0
0
0
0
0
0
0
0
0
0
0
0
0
0
0
0
0
0
0
0
0
0
0
0
0
0
0.113327
0
0
0
0
0
0
0.113243
0
0
0
0
0.113315
0
0.113165
0
0
0.113327
0.113327
0
0.113327
0.113327
0.113327
0.113231
0.113327
0.111989
0.113318
0
0
0.113327
0.112193
0.113327
0.113327
0.113327
0.113327
0.113327
0.113327
0
0
0
0.113327
0.113327
0.113327
0.113327
0.113327
0.113084
0.113327
0.113327
0.11186
0.112658
0.113309
0
0
0.112667
0.112552
0.113327
0.113327
0.113327
0
0.111676
0.113327
0.113327
0.113327
0
0.112386
0.113327
0.113326
0.113327
0.113233
0
0
0
0
0.113321
0.113327
0.113327
0.112466
0.113327
0.113327
0
0
0.113327
0.112904
0.113327
0.113327
0.113325
0.113327
0.110465
0.112969
0.113327
0.11332
0.113327
0.113327
0.110356
0.113327
0.110152
0.11033
0.112386
0.113323
0.113327
0
0
0.110339
0.111034
0.112312
0.113327
0.113327
0.111642
0.112948
0.113279
0.110372
0.110418
0.113322
0
0.113327
0.113327
0.113327
0.113327
0.113327
0.113327
0.11071
0.113263
0.113327
0
0
0
0.113327
0.113327
0.111484
0.113327
0.110691
0.11332
0.112194
0.113327
0.112707
0.113033
0.113327
0.113327
0.113327
0.113327
0.113327
0.113327
0.113327
0.113327
0.113327
0.11295
0.110383
0.113327
0.113327
0.113327
0.113327
0.113326
0.112286
0.111372
0.113201
0.113327
0.109943
0.112291
0.113327
0.110547
0.113327
0.112223
0.111337
0.111258
0.111132
0.111353
0
0.112423
0.11291
0.111515
0.110293
0.110739
0.113327
0.11156
0.112802
0.110929
0.111894
0.113327
0.113327
0.110701
0.113327
0.112854
0.113327
0.113326
0.109766
0.113327
0.111
0.113327
0.113327
0.113316
0.111095
0.113327
0.111945
0.111844
0
0.113327
0.113327
0.113327
0.112031
0.111087
0.111419
0.113327
0.111343
0.113327
0.113327
0.113301
0.113327
0.110528
0.113227
0.111465
0.113327
0.113327
0.111218
0.112185
0.113327
0.113327
0
0.113327
0.110556
0.113327
0.113327
0.113325
0.110878
0.112564
0.113327
0.110542
0.110139
0.112166
0.110458
0.110515
0.110618
0.110981
0.113327
0.111771
0.111787
0.113327
0
0.11162
0.111175
0.112448
0.111782
0.111858
0.113296
0.112907
0.113327
0.110565
0.112744
0.113327
0.110751
0.111684
0.111882
0.111504
0.112214
0.113327
0.113327
0.113322
0.111631
0.111912
0.113327
0.113263
0.111984
0.113273
0.110276
0.110026
0.113327
0.110273
0.110407
0.110943
0.110504
0.113327
0.111098
0.112891
0.112214
0.112745
0.113327
0.113327
0
0.112694
0.110631
0.113316
0.113327
0.110694
0.113327
0.110937
0.110938
0.110976
0.112209
0.113327
0
0
0.111759
0.113327
0.113327
0.113326
0.113327
0.109536
0.113327
0.110632
0.11101
0.113327
0.111095
0.113327
0.112104
0.113064
0.113327
0.110335
0.111988
0.110553
0.11172
0.113137
0.113327
0.111439
0.111409
0.110562
0.113327
0.110666
0.113327
0.113327
0.111802
0.113327
0.111438
0.113327
0.112204
0.112701
0.113327
0
0
0.113327
0.113327
0.110328
0.112588
0.110745
0.111075
0.11246
0.110382
0.11054
0.111164
0.113325
0.110636
0.112727
0.112474
0.112372
0.111867
0.113307
0.113327
0.113327
0.113327
0.109239
0.110758
0.113327
0.113327
0.112194
0.113318
0.110084
0.113258
0.110304
0.111557
0.113327
0.113327
0.113327
0
0.11271
0.113327
0.113327
0.11235
0.110558
0.111823
0.110926
0.110236
0.112349
0.110505
0.111276
0.111066
0.111269
0.111863
0.110789
0.111423
0.111904
0.111704
0.111421
0.112833
0.113327
0.113327
0
0
0.113327
0.113327
0.113327
0.113327
0.113327
0.109734
0.113326
0.113327
0.113327
0.110253
0.111042
0.113327
0.110813
0.112312
0.111112
0.111158
0.111725
0.111806
0.113327
0.113327
0.113327
0
0.113327
0.113327
0.113327
0.11248
0.111739
0.112489
0.110578
0.110709
0.11045
0.110569
0.113327
0.110976
0.111453
0.111574
0.111558
0.111319
0.113327
0.111285
0.113327
0.113327
0.113298
0.113327
0.113327
0.113327
0.113327
0.113327
0.113029
0.111116
0.112652
0.11009
0.110113
0.110198
0.110771
0.113327
0.110834
0.111705
0.112298
0.112209
0.113327
0.112489
0.112859
0.113327
0.113327
0.113327
0.113327
0
0
0
0.112403
0.112141
0.113327
0.113327
0.113325
0.113327
0.110039
0.110621
0.110273
0.110882
0.110946
0.110921
0.111047
0.112235
0.113327
0.113327
0.1118
0.111767
0.113167
0.1119
0.112164
0.113327
0.112307
0.113327
0.113327
0.113269
0.113327
0.113327
0.113322
0.112989
0.112826
0.110441
0.111181
0.113327
0.111018
0.113327
0.11332
0.111067
0.11109
0.111313
0.111289
0.111497
0.111582
0.113327
0
0.113327
0.10984
0.111522
0.110522
0.109603
0.113327
0.109892
0.11018
0.111354
0.111371
0.110784
0.113327
0.110638
0.112361
0.113327
0.110793
0.113327
0.113327
0.110142
0.110747
0.113327
0.113327
0.110799
0.110265
0.113327
0.113327
0.110474
0.111476
0.113327
0.110247
0.11145
0.112623
0.110756
0.11113
0.111193
0.113327
0.111181
0.112253
0.113327
0.113327
0.113327
0.112327
0.111779
0.110102
0.111019
0.112031
0.11027
0.110538
0.110219
0.11021
0.11104
0.111309
0.113327
0.110878
0.112809
0.1113
0.111773
0.111286
0.111398
0.11236
0
0.112409
0.113327
0.112561
0.113181
0.10956
0.113327
0.111956
0.110436
0.11015
0.112526
0.113327
0.110541
0.111358
0.110632
0.111073
0.110538
0.111809
0.111153
0.1118
0.113327
0.112006
0.113327
0.113327
0.112483
0.113327
0.113327
0.110647
0.112102
0.110099
0.109333
0.109388
0.113327
0.109503
0.110727
0.110236
0.110241
0.111598
0.111524
0.11099
0.111267
0.113327
0.111662
0.113326
0.113327
0.113327
0
0.113327
0.113325
0.110766
0.113324
0.109716
0.113327
0.110815
0.111602
0.111275
0.110321
0.110362
0.113327
0.110798
0.111961
0.110969
0.111395
0.11202
0.113168
0.113327
0.112816
0
0.113327
0.111128
0.113327
0.110101
0.109582
0.112134
0.112551
0.113327
0.113114
0.111614
0.112093
0.113327
0.110442
0.110722
0.111692
0.110781
0.113327
0.111124
0.111296
0.113327
0.111677
0.113157
0.113327
0.113327
0.113161
0.111876
0.111248
0.112685
0.113327
0.10966
0.110875
0.111077
0.11083
0.111533
0.112032
0.111595
0.112161
0.112414
0.113327
0.113053
0.11265
0.113327
0.113327
0
0.113327
0.110186
0.112969
0.111101
0.113327
0.109949
0.110468
0.111939
0.11001
0.110383
0.110815
0.11074
0.110797
0.111951
0.111501
0.113327
0.113327
0.113327
0.113327
0.113327
0
0.112492
0.113327
0.112188
0.112297
0.109544
0.113327
0.109722
0.109597
0.11171
0.109684
0.110241
0.109862
0.112532
0.111276
0.113327
0.113327
0
0.112594
0.113327
0.113327
0.111892
0.113327
0.113327
0.111062
0.109856
0.111497
0.113327
0.110529
0.111161
0.11109
0.113327
0.111711
0.113327
0.113327
0.113327
0
0.112079
0.112552
0.112035
0.112714
0.113327
0.113327
0.109781
0.111465
0.109501
0.10981
0.113323
0.109774
0.113327
0.110013
0.110614
0.11019
0.110206
0.110288
0.111693
0.113327
0.112842
0.11284
0
0
0.110769
0.111357
0.110606
0.111376
0.110363
0.111292
0.109687
0.110451
0.113323
0.110114
0.110441
0.11183
0.11029
0.110167
0.113327
0.110318
0.110604
0.112193
0.110841
0.111155
0.111478
0.11206
0.11194
0.113327
0.113327
0.113327
0
0.11224
0.111502
0.113327
0.109754
0.109605
0.113327
0.113327
0.10983
0.110245
0.1112
0.110508
0.110765
0.111701
0.111091
0.111743
0
0.113221
0.111739
0.111053
0.112231
0.110302
0.113327
0.113327
0.110069
0.113326
0.10991
0.112205
0.112598
0.110305
0.113327
0.111681
0.109957
0.113327
0.110561
0.111141
0.113326
0.111751
0.111144
0.112133
0.112274
0.112914
0.111965
0.113327
0.113118
0.110071
0.113327
0.113327
0.113327
0.11074
0.112272
0.113046
0.113327
0.110542
0.111829
0.112408
0.113327
0.110448
0.110499
0.111587
0.112577
0.11219
0.112823
0.113327
0.113327
0.111106
0.113327
0.113327
0.113327
0.11013
0.109472
0.112529
0.110277
0.110077
0.111185
0.110622
0.113327
0.110798
0.110819
0.111115
0.111114
0.111134
0.111256
0.113327
0.111702
0
0.111318
0.112816
0.113315
0.111343
0.113327
0.110633
0.110154
0.109866
0.110304
0.109772
0.112735
0.112117
0.110446
0.110609
0.110577
0.111525
0.11162
0.111241
0.112337
0.113327
0.112515
0
0.113327
0.110398
0.111218
0.113326
0.110415
0.110764
0.110697
0.110695
0.111105
0.111566
0.111047
0.111284
0.111164
0.111341
0.111496
0.112025
0.112372
0
0.113327
0.113327
0.110662
0.110478
0.113327
0.111631
0.113327
0.113327
0.109799
0.11181
0.113327
0.111126
0.112593
0.113327
0.110357
0.110449
0.110993
0.111761
0.111878
0.111425
0.111534
0.113327
0.112567
0.113327
0.113327
0
0.112677
0.111337
0.113327
0.110444
0.111676
0.113325
0.113327
0.110281
0.111328
0.112162
0.109612
0.11005
0.11027
0.111084
0.110218
0.11062
0.11079
0.111075
0.110316
0.110352
0.110583
0.111512
0.113306
0.111669
0.112273
0.113327
0.112637
0.113327
0.113327
0.109135
0.113327
0.111648
0.110293
0.110707
0.109808
0.109792
0.11016
0.113327
0.11008
0.110079
0.110154
0.110249
0.111724
0.110947
0.111341
0.113327
0
0.113327
0.11239
0.110043
0.113237
0.109727
0.11041
0.11281
0.113327
0.111638
0.109663
0.110464
0.111734
0.110848
0.11052
0.111438
0.111346
0.113327
0.11153
0.112135
0.111983
0
0
0.111751
0.112209
0.109889
0.112598
0.113327
0.113327
0.109889
0.110226
0.110936
0.112037
0.110197
0.111176
0.110952
0.110718
0.111097
0.112925
0.113327
0
0
0
0.110085
0.111375
0.113327
0.112849
0.111703
0.109543
0.109433
0.113033
0.110735
0.111388
0.113327
0.109958
0.110179
0.110442
0.110747
0.110904
0.111435
0.112271
0.113035
0
0.112109
0.113327
0.113325
0.111094
0.11101
0.109314
0.109754
0.110198
0.111529
0.111716
0.110439
0.112053
0.110383
0.110729
0.110551
0.111423
0.111502
0.110786
0.112181
0.1121
0.112762
0
0.111463
0.113147
0.109662
0.109929
0.113327
0.110281
0.112929
0.110392
0.111273
0.113327
0.110158
0.110206
0.111693
0.110246
0.113327
0.110429
0.110862
0.112029
0.113327
0.112402
0.113037
0.113327
0.113327
0.113327
0.113327
0.113327
0.113327
0.110346
0.113327
0.112022
0.109453
0.109523
0.109866
0.113326
0.110199
0.110291
0.112858
0.110201
0.110343
0.110632
0.110903
0.111613
0.110746
0.112161
0.112356
0.112713
0.113327
0.113204
0.110291
0.113327
0.113327
0.113327
0.111567
0.109649
0.10935
0.111129
0.109794
0.109796
0.110059
0.111108
0.110258
0.110417
0.110422
0.11132
0.110432
0.111641
0.111263
0.111605
0.11242
0.111009
0.111635
0.109954
0.110585
0.109171
0.109407
0.111288
0.110543
0.111171
0.110567
0.110456
0.111732
0.111186
0.111804
0.113327
0.113327
0.112638
0.113327
0.113327
0.112349
0.111976
0.109217
0.112204
0.109433
0.111451
0.109712
0.109774
0.110096
0.110483
0.110801
0.111198
0.111243
0.110794
0.113327
0.111048
0.111174
0.111168
0.112936
0.11292
0.112586
0.113327
0
0.11065
0.111258
0.111375
0.109844
0.110168
0.110044
0.109966
0.110455
0.109934
0.110007
0.110376
0.111074
0.111165
0.110622
0.111323
0.112012
0.113327
0.111612
0.111294
0.113272
0.113327
0.113327
0.111849
0.110064
0.113327
0.11017
0.110753
0.113327
0.111406
0.109899
0.110748
0.111044
0.1102
0.110276
0.11038
0.11237
0.111221
0.111348
0.113029
0.112264
0.113327
0.113327
0.113327
0.113327
0.113327
0.110558
0.112027
0.111505
0.111053
0.109325
0.109572
0.109847
0.110851
0.113327
0.109772
0.110179
0.111844
0.110035
0.110441
0.110539
0.110625
0.110469
0.111193
0.111617
0.113327
0.111753
0.111935
0
0.112749
0.113327
0.113327
0.110492
0.111176
0.112436
0.109638
0.109763
0.111908
0.110991
0.110589
0.110572
0.111672
0.110379
0.111205
0.113327
0.111153
0.113327
0.113327
0
0
0.112073
0.109108
0.113327
0.110565
0.110122
0.109624
0.109398
0.109616
0.110142
0.109757
0.109799
0.109853
0.110304
0.11158
0.110225
0.110368
0.110511
0.112034
0
0.113327
0.113327
0.113327
0.110012
0.113327
0.113308
0.109818
0.110287
0.110486
0.11121
0.109828
0.109899
0.110578
0.110446
0.110574
0.110837
0.111794
0.111445
0
0
0.112476
0.112116
0.111223
0.110424
0.111136
0.111263
0.109125
0.111048
0.109541
0.109737
0.110038
0.113327
0.109901
0.110222
0.110781
0.111192
0.111444
0
0.113327
0.110878
0.112516
0.113327
0.113327
0.1115
0.110419
0.10997
0.110375
0.113327
0.113045
0.109696
0.109733
0.110553
0.111838
0.110602
0.11183
0.110938
0.110822
0.110795
0.113327
0.111429
0.112774
0.113327
0
0.111476
0.110533
0.113327
0.111337
0.113327
0.113327
0.10897
0.11152
0.112557
0.113327
0.109577
0.109889
0.113327
0.111517
0.113327
0.109578
0.110104
0.111649
0.110148
0.110448
0.110806
0.113327
0.113169
0.110702
0.113327
0.112761
0.113327
0.110693
0.113327
0.110447
0.111622
0.112071
0.112324
0.113125
0.109632
0.113327
0.110185
0.110355
0.110021
0.112559
0.110489
0.110616
0.113085
0.113327
0.110931
0
0
0.110529
0.113327
0.112348
0.110939
0.112251
0.110492
0.109877
0.11326
0.112659
0.109138
0.112278
0.11196
0.112376
0.109919
0.110327
0.11169
0.10957
0.110036
0.110832
0.110333
0.111217
0.110456
0.110598
0.110604
0.110913
0.111571
0.111968
0.113327
0.111901
0
0
0
0
0
0
0
0
0
0
0
0
0
0
0
0
0
0
0
0
0
0
0
0
0
0
0
0
0
0
0
0
0
0
0
0
0
0
0
0
0
0
0
0
0
0
0
0
0
0
0
0
0
0
0
0
0
0
0
0
0
0
0
0
0
0
0
0
0
0
0
0
0
0
0
0
0
0
0
0
0
0
0
0
0
0
0
0
0
0
0
0
0
0
0
0
0
0
0
0
0
0
0
0
0
0
0
0
0
0
0
0
0
0
0
0
0
0
0
0
0
0
0
0
0
0
0
0
0
0
0
0
0
0
0
0
0
0
0
0
0
0
0
0
0
0
0
0
0
0
0
0
0
0
0
0
0
0
0
0
0
0
0
0
0
0
0
0
0
0
0
0
0
0
0
0
0
0
0
0
0
0
0
0
0
0
0
0
0
0
0
0
0
0
0
0
0
0
0
0
0
0
0
0
0
0
0
0
0
0
0
0
0
0
0
0
0
0
0
0
0
0
0
0
0
0
0
0
0
0
0
0
0
0
0
0
0
0
0
0
0
0
0
0
0
0
0
0
0
0
0
0
0
0
0
0
0
0
0
0
0
0
0
0
0
0
0
0
0
0
0
0
0
0
0
0
0
0
0
0
0
0
0
0
0
0
0
0
0
0
0
0.113327
0.113327
0
0.113327
0
0.113327
0.113327
0
0.11328
0
0
0
0.113327
0.113327
0.113321
0.113308
0.113292
0
0
0.113327
0
0.113327
0.113297
0.11332
0.113284
0
0
0.11332
0.113312
0.11329
0.113218
0.113104
0
0
0
0.11332
0.113217
0.113309
0.113321
0.113318
0.113326
0.113327
0.113315
0.11331
0.113327
0.113225
0.113285
0
0
0
0.113327
0.112649
0.112541
0.113327
0.113299
0
0.113295
0.113068
0
0
0.113327
0.113327
0.113327
0.112833
0
0.113327
0.113324
0.113105
0.113327
0.113327
0.113327
0.113326
0
0.113326
0.113327
0.113118
0.113327
0
0
0
0
0.113327
0.113272
0.113167
0.113327
0.113324
0.113317
0.112444
0.113326
0.113324
0.113327
0.113327
0.111895
0.113327
0.113327
0.11327
0.11317
0.113327
0.113327
0.11272
0.112982
0.113327
0.113327
0.113327
0.113327
0.113327
0.113327
0.113305
0.113253
0.113327
0.113327
0.113327
0.113305
0.113298
0.113321
0.113306
0.113327
0.113285
0.113317
0.113327
0.113327
0.113327
0.113325
0.11061
0.113327
0.113311
0
0.113319
0.113323
0.113324
0.113327
0.113193
0.113285
0.113327
0.113318
0.113327
0.113327
0.113327
0.113327
0.113327
0.113327
0.113327
0.11332
0.113291
0.113324
0.113327
0.113313
0.113305
0.113327
0.113003
0.113327
0.113245
0
0.113322
0.113203
0.113292
0.113327
0.113317
0.113327
0.113327
0.113327
0.111382
0.113327
0.113325
0.113327
0.113327
0.113327
0.113313
0.113267
0.113073
0.113239
0.113326
0.113312
0.113327
0.113327
0.113327
0
0
0
0
0
0.113319
0.113302
0.112376
0.113327
0.113327
0.113259
0
0.113327
0.113321
0.113327
0.113327
0.11311
0.113327
0.113281
0.113327
0.111784
0.113327
0.113323
0.113324
0.113327
0.113327
0.11291
0.113327
0.113202
0.113327
0.113327
0.113327
0.113327
0.113325
0.113327
0.113327
0.113326
0
0.113327
0.113327
0.11331
0.113327
0.113315
0.113324
0.113278
0.112378
0.113322
0.113327
0.113323
0
0.113316
0.113318
0.11332
0.113327
0.113327
0.113263
0.113327
0.113327
0.113327
0.113327
0.112323
0.113193
0.113327
0.113325
0.113326
0.113327
0.113327
0
0.113327
0.113327
0.112713
0.113327
0.113327
0.113327
0.113327
0.113258
0.113045
0.113327
0.113327
0.113327
0.113327
0.113327
0.113322
0.113327
0
0.113327
0.113327
0.113304
0.113327
0.113327
0.113266
0.113251
0.113316
0.113326
0.113327
0.111974
0.113227
0.113327
0.113295
0.113327
0.113321
0
0.113321
0.113316
0.113279
0.113258
0.113327
0.113327
0.110503
0.113094
0.112113
0.110963
0.112478
0.113327
0.111806
0.113327
0.113327
0.113109
0.113327
0.113327
0.113327
0.113327
0.113327
0.113327
0
0
0.113324
0.113245
0.113249
0.111587
0.113327
0.113325
0.111395
0.112894
0.112272
0.113327
0.113327
0.113105
0.113327
0.113327
0.113327
0.113327
0.113327
0.113327
0.113327
0.11175
0.113147
0.113327
0.113327
0.112595
0.113327
0.113327
0.11332
0.113327
0.113327
0.112405
0.113327
0.113327
0.113327
0.113327
0.113327
0.113327
0.113327
0.113327
0.113327
0.113327
0
0
0.11331
0.113321
0.113327
0.113321
0.113005
0.113327
0.113327
0.113327
0.113327
0.111666
0.112053
0.113321
0.113327
0.112124
0.113228
0.11232
0.113327
0.113327
0.113327
0.113327
0.113327
0.113327
0.113327
0.113327
0.113327
0.113325
0.113322
0.113327
0.113323
0.113322
0.113324
0.113327
0.113327
0.113327
0.111078
0.113191
0.112965
0.113319
0.112457
0.111551
0.112752
0.112203
0.113294
0.113327
0.113327
0.113327
0.113327
0.113327
0.113327
0.113327
0.113323
0.113327
0.113325
0.113325
0.113275
0.112287
0.112225
0.11112
0.113126
0.111436
0.113158
0.113327
0.113327
0.113327
0.112432
0.113327
0.113327
0.113327
0.113327
0.112442
0.113327
0.113327
0.113327
0.113327
0.113327
0.113327
0.113327
0.113327
0.113327
0.113327
0.113325
0
0.113327
0.11326
0.113327
0.111941
0.11246
0.113048
0.111816
0.112654
0.113327
0.113325
0.113327
0.113327
0.113327
0.113327
0.113327
0.113326
0.113327
0.113327
0.113327
0.113327
0
0
0.113327
0.113327
0.113281
0.113232
0.113327
0.113327
0.112711
0.113327
0.110813
0.113327
0.113327
0.113327
0
0
0
0
0.113326
0.113327
0.113311
0.113317
0.113327
0.112726
0.112593
0.112028
0.113327
0.113088
0.112148
0.113327
0.112759
0.113327
0.113327
0.113327
0.113327
0.113327
0.113327
0
0
0
0.113316
0.113327
0.113327
0.113327
0.113327
0.112678
0.111686
0.111292
0.113327
0.113327
0.113327
0.113313
0.113327
0.112501
0.113327
0.113327
0.113327
0.113327
0.113321
0.113327
0.113327
0.113323
0
0
0.113327
0.113265
0.113267
0.113323
0.113324
0.110899
0.113327
0.111315
0.111442
0.112498
0.112984
0.113327
0.113327
0.113327
0.11332
0.113327
0.113327
0.113327
0.113326
0
0.11331
0.113272
0.113326
0.112074
0.111849
0.113327
0.113327
0.112325
0.112253
0.113262
0.113327
0.113327
0.113327
0.113327
0
0
0.113327
0.113327
0.113327
0.113283
0.113327
0.113327
0.111914
0.11331
0.112217
0.113301
0.112467
0.113327
0.113327
0.113327
0.112331
0.113327
0.113327
0.113327
0.113327
0.113327
0.113327
0.113327
0.113327
0
0.113327
0.113193
0.113251
0.113257
0.113327
0.113327
0.113272
0.113327
0.113195
0.113327
0.111852
0.112049
0.113051
0.113327
0.113327
0.113325
0.113327
0
0.113327
0.113323
0.113306
0.113224
0.113315
0.113326
0.113325
0.113323
0.113327
0.113308
0.113298
0.113327
0.113327
0.113327
0.113327
0.111824
0.113327
0.11318
0.113327
0.113327
0.113327
0.113327
0.113327
0
0
0
0.113327
0.113327
0.113206
0.113322
0.113327
0.111549
0.113047
0.113321
0.112756
0.113327
0.113327
0.113327
0.113327
0.113327
0.113327
0.113327
0
0
0
0.113326
0.113241
0.113327
0.111797
0.113327
0.113327
0.111198
0.113325
0.112835
0.113326
0.111778
0.111334
0.112745
0.113119
0.11263
0.113327
0.113325
0.113327
0.113327
0.113327
0.113327
0.113327
0
0.113246
0.113255
0.113327
0.113326
0.113327
0.112184
0.113327
0.113327
0.111818
0.113327
0.113327
0.112722
0.113327
0.113327
0.113327
0.113327
0.113327
0.113327
0.113327
0.113327
0.113323
0
0
0.113327
0.113327
0.113325
0.113292
0.113327
0.113254
0.113327
0.113283
0.112505
0.113325
0.113327
0.112703
0.112027
0.113327
0.113327
0.113327
0.113326
0.113327
0.113325
0.113327
0.113322
0.113327
0.113315
0.113327
0.113327
0.111113
0.111019
0.113327
0.11204
0.112152
0.113327
0.113327
0.112591
0.11258
0.113327
0.113327
0.113327
0.113327
0.113327
0
0
0.113327
0.113163
0.113327
0.113327
0.113327
0.110934
0.113327
0.113327
0.11157
0.113327
0.113323
0.111261
0.113324
0.113318
0.113327
0.11324
0.113324
0.113327
0.113327
0
0
0.113327
0.113324
0.112786
0.113307
0.113324
0.113308
0.111978
0.111382
0.110738
0.113048
0.113303
0.111401
0.113327
0.112597
0.113327
0.113326
0.113327
0
0
0.113323
0.113327
0.113311
0.113327
0.112392
0.113122
0.113327
0.113327
0.113327
0.112622
0.1131
0.113327
0.113327
0.112443
0.112255
0.112999
0.113327
0.113327
0.113325
0.113327
0.113327
0.113327
0.113327
0.10992
0.113326
0.113307
0.113322
0.111163
0.111689
0.110649
0.113327
0.113327
0.113327
0.113327
0.113327
0.112844
0.113327
0.113327
0.113327
0.113327
0.113327
0.113327
0.113327
0
0
0
0.113327
0.113325
0.110791
0.11329
0.113327
0.110535
0.11092
0.112106
0.113327
0.113286
0.113327
0.113326
0.113327
0.113327
0.113327
0
0.113327
0.113327
0.113319
0.113327
0.113327
0.112211
0.111028
0.111057
0.110988
0.111001
0.112063
0.111942
0.111228
0.111405
0.111528
0.113293
0.11332
0.113134
0.113327
0.113158
0.113327
0.113327
0.113327
0.113327
0.113327
0.113327
0.113327
0.113327
0.113327
0.113326
0.113325
0.113327
0
0.113327
0.11332
0.113323
0.113326
0.113327
0.113327
0.113324
0.113327
0.113327
0.113116
0.111754
0.110959
0.113228
0.113327
0.112798
0.112846
0.113327
0.113327
0.113327
0.113047
0.113327
0.113327
0.113327
0
0.113327
0.113327
0.112046
0.113327
0.111035
0.112638
0.113327
0.113327
0.112771
0.112539
0.113322
0.113327
0.113327
0.113327
0.113327
0
0.113327
0.113326
0.113324
0.113232
0.113295
0.113327
0.113327
0.113327
0.11071
0.111461
0.112622
0.113327
0.113327
0.113327
0.112967
0.112088
0.112032
0.113327
0.113327
0.113327
0.113327
0.113327
0.113327
0.113327
0.113327
0.113327
0.113327
0.113327
0
0.113302
0.113218
0.113313
0.113263
0.113325
0.113327
0.113327
0.1116
0.113245
0.113327
0.113327
0.113327
0.113327
0.113327
0
0.113327
0.113325
0.113327
0.113084
0.113227
0.113327
0.113323
0.113268
0.111516
0.110762
0.112139
0.113326
0.113327
0.113327
0.113327
0.113327
0.113327
0.113327
0.113327
0.113327
0.113327
0.113327
0.113327
0.113327
0.113327
0.1133
0.113327
0.113325
0.111963
0.113327
0.111576
0.111256
0.111856
0.112391
0.113114
0.11281
0.113327
0.113327
0.113327
0.113327
0.113327
0.113327
0
0
0.113327
0.113327
0.113327
0.113327
0.113327
0.113327
0.110858
0.113327
0.112902
0.113245
0.113327
0.113236
0.110684
0.112626
0.113327
0.113327
0.113327
0.111368
0.113309
0.113327
0.113158
0.112371
0.113327
0.113327
0.113006
0.113213
0.113327
0.113321
0
0.113327
0.113327
0.113327
0.110802
0.111006
0.111861
0.113327
0.111332
0.112693
0.113327
0.113327
0.113327
0.113173
0.113327
0.112517
0.113327
0.113327
0.113323
0.113327
0.113325
0.113327
0.113327
0
0.113327
0.113327
0.113327
0.113327
0.113327
0.113325
0.113316
0.111642
0.110506
0.113327
0.113327
0.112125
0.111977
0.113327
0.113327
0.113083
0.113327
0.113327
0.113327
0.113327
0.113327
0.113327
0.113327
0
0
0.112597
0.113327
0.113327
0.113327
0.111409
0.111889
0.111191
0.112583
0.113327
0.110903
0.112775
0.112057
0.111841
0.111962
0.112916
0.113327
0.113327
0.113327
0.113327
0.113327
0.113327
0.113327
0.113327
0.113327
0.113327
0.113246
0.112127
0.113293
0.11287
0.113327
0.11031
0.112965
0.113327
0.113327
0.113327
0.113327
0.111501
0.11237
0.111052
0.113104
0.113327
0.113111
0.112552
0.113327
0.113327
0.113327
0
0
0
0.112116
0.113324
0.112375
0.111947
0.112288
0.11174
0.111951
0.113327
0.112793
0.113327
0.113327
0.113327
0.113298
0.113327
0.113327
0.113325
0.113327
0.113327
0.113325
0.113182
0.113327
0.110362
0.112191
0.113327
0.112837
0.111466
0.111465
0.113327
0.113327
0.113327
0.113327
0.113327
0.113327
0.113325
0.113327
0.113306
0.113322
0.113324
0.112249
0.113289
0.113327
0.113327
0.110457
0.113327
0.113327
0.111733
0.112732
0.113327
0.113327
0.113327
0.113327
0
0.113325
0.113312
0.113244
0.113317
0.111432
0.11175
0.113327
0.11071
0.111778
0.113327
0.112921
0.110968
0.111375
0.113327
0.112761
0.113326
0.113309
0.113327
0.113327
0.113327
0.113327
0.113327
0.11084
0.113327
0.110367
0.110665
0.113327
0.113327
0.11177
0.113327
0.113327
0.113124
0.112406
0.113327
0.113327
0.113327
0.113327
0.113327
0.113327
0.113327
0
0.111112
0.113327
0.113327
0.113327
0.11238
0.113327
0.113327
0.112128
0.113308
0.113327
0.112759
0.113327
0.111886
0.112955
0.113327
0.112161
0.112367
0.112627
0.112937
0.113071
0.113327
0.113327
0.113327
0.113327
0
0.113327
0.113327
0.113327
0.113327
0.113327
0.112213
0.113326
0.112424
0.111953
0.111002
0.111361
0.112344
0.111751
0.111166
0.111587
0.112586
0.113327
0.113327
0.113327
0.113327
0.113302
0.1115
0.111738
0.113327
0.113327
0.11079
0.111326
0.113327
0.110844
0.111095
0.111691
0.11162
0.11163
0.112284
0.113327
0.113327
0.111987
0.11325
0.113327
0.113327
0.113327
0.113327
0.113327
0.113327
0.112891
0.110785
0.113172
0.113327
0.113327
0.11196
0.113327
0.11092
0.113315
0.111685
0.112045
0
0
0
0.113327
0.113327
0.113303
0.110126
0.110466
0.112797
0.110666
0.111396
0.111091
0.111174
0.113327
0.112951
0.113327
0.113327
0.113327
0.113327
0.113327
0.113327
0.113327
0.113327
0.113324
0.113326
0.113327
0.113327
0.112942
0.113327
0.113327
0.111869
0.113327
0.113327
0.11252
0.113327
0.113039
0.111092
0.111283
0.113327
0.113327
0.113327
0.113327
0.113327
0.113327
0
0.113327
0.111732
0.113327
0.113327
0.113324
0.113327
0.113327
0.113327
0.113327
0.112925
0.11116
0.111049
0.111868
0.113327
0.111292
0.111766
0.1118
0.113327
0.112081
0.113327
0.113327
0.113327
0
0.113327
0.113327
0.113308
0.113318
0.11038
0.112506
0.109988
0.113327
0.113327
0.113327
0.113327
0.111684
0.111282
0.112702
0.11163
0.112466
0.113327
0.112219
0.112551
0.113327
0.113327
0.113327
0.113327
0.113327
0
0
0.113327
0.113321
0.113316
0.113327
0.113327
0.113251
0.112231
0.113327
0.11123
0.111563
0.112021
0.111147
0.112234
0.111293
0.111609
0.111751
0.111887
0.113327
0.113327
0.113327
0.113327
0.113327
0.113327
0.113327
0.113327
0.111093
0.111685
0.113325
0.113327
0.113327
0.113326
0.11242
0.1128
0.111518
0.111886
0.113327
0.113327
0.113327
0
0.113327
0.113327
0.113323
0.113327
0.113327
0.113316
0.111443
0.113243
0.110673
0.11057
0.112463
0.112971
0.110705
0.111804
0.111135
0.111917
0.11202
0.111386
0.113327
0.113327
0.112488
0.113025
0.113327
0.112295
0.113327
0.113327
0.113327
0
0.113327
0.113327
0.113327
0.113327
0.110274
0.11308
0.113327
0.111743
0.113327
0.113327
0.11025
0.113325
0.113327
0.110509
0.111317
0.113327
0.113327
0.113326
0.112829
0.113327
0.112939
0.113327
0
0
0
0
0.113327
0.113327
0.113258
0.113236
0.113326
0.113219
0.111242
0.111161
0.110747
0.111291
0.112686
0.113327
0.113327
0.113327
0.113327
0.113327
0.113327
0.113327
0.113327
0.112395
0.113327
0.113327
0.111596
0.113327
0.110669
0.113327
0.110982
0.111686
0.113327
0.112292
0.112547
0.113327
0.113327
0.113327
0
0
0.113188
0.113327
0.113327
0.113326
0.113312
0.113327
0.112352
0.113321
0.110064
0.113327
0.113327
0.113327
0.110441
0.110694
0.113326
0.113327
0.111344
0.113327
0.111336
0.113327
0.113327
0.113327
0.112623
0.11237
0.11187
0.11327
0.113327
0.113327
0.113327
0.113327
0
0
0.113327
0.113327
0.113327
0.113327
0.113321
0.113327
0.112341
0.113327
0.111072
0.113312
0.112767
0.112706
0.110769
0.111006
0.111077
0.111096
0.111568
0.111624
0.112593
0.113327
0.113327
0
0.113327
0.113327
0.113327
0.113327
0.113327
0.113326
0.113327
0.110014
0.11134
0.112913
0.111673
0.111857
0.111087
0.111843
0.11205
0.113327
0.112752
0.113327
0.113327
0.113327
0
0
0.113119
0.113134
0.113009
0.112729
0.110352
0.112165
0.110526
0.110985
0.112032
0.110809
0.111192
0.111318
0.111546
0.112157
0.111833
0.112247
0.113327
0.113327
0.113327
0.113181
0.113327
0.113327
0.113327
0.113327
0.113327
0.113327
0.113327
0.113319
0.113327
0.113327
0.111625
0.113327
0.111759
0.110898
0.111339
0.111572
0.113327
0.113327
0.112975
0.112948
0.113327
0.113307
0.113327
0.113311
0.113297
0.113313
0.111531
0.111911
0.113327
0.111982
0.113327
0.112724
0.112624
0.111243
0.113327
0.113327
0.110704
0.11091
0.111276
0.111101
0.111449
0.113327
0.113327
0
0.113327
0.113327
0.110053
0.111702
0.113327
0.113022
0.111406
0.110752
0.11099
0.113314
0.111312
0.113327
0.113327
0.111466
0.112116
0.113327
0.113327
0.113327
0
0.113327
0.113327
0.11244
0.113327
0.113327
0.113327
0.111221
0.113327
0.113327
0.113327
0.110748
0.111876
0.111728
0.111527
0.112741
0.113327
0.113215
0.113327
0.113327
0.113327
0.113323
0.113327
0.113327
0.113213
0.113327
0.113327
0.111493
0.110634
0.112039
0.111583
0.111678
0.113327
0.111962
0.113327
0.113327
0.112635
0.113327
0.113327
0.113327
0.113321
0.1112
0.112486
0.113327
0.113327
0.113039
0.113315
0.113327
0.111019
0.112211
0.113327
0.111184
0.112086