/*--------------------------------*- C++ -*----------------------------------*\
| =========                 |                                                 |
| \\      /  F ield         | OpenFOAM: The Open Source CFD Toolbox           |
|  \\    /   O peration     | Version:  v1906                                 |
|   \\  /    A nd           | Web:      www.OpenFOAM.com                      |
|    \\/     M anipulation  |                                                 |
\*---------------------------------------------------------------------------*/
FoamFile
{
    version     2.0;
    format      ascii;
    class       scalarField;
    location    "2.83/lagrangian/coalCloud1";
    object      YCO(g);
}
// * * * * * * * * * * * * * * * * * * * * * * * * * * * * * * * * * * * * * //


53638
(
0
0
0
0
0
0
0
0
0
0
0
0
0
0
0
0
0
0
0
0
0
0
0
0
0
0
0
0
0
0
0
0
0
0
0
0
0
0
0
0
0
0
0
0
0
0
0
0
0
0
0
0
0
0
0
0
0
0
0
0
0
0
0
0
0
0
0
0
0
0
0
0
0
0
0
0
0
0
0
0
0
0
0
0
0
0
0
0
0
0
0
0
0
0
0
0
0
0
0
0
0
0
0
0
0
0
0
0
0
0
0
0
0
0
0
0
0
0
0
0
0
0
0
0
0
0
0
0
0
0
0
0
0
0
0
0
0
0
0
0
0
0
0
0
0
0
0
0
0
0
0
0
0
0
0
0
0
0
0
0
0
0
0
0
0
0
0
0
0
0
0
0
0
0
0
0
0
0
0
0
0
0
0
0
0
0
0
0
0
0
0
0
0
0
0
0
0
0
0
0
0
0
0
0
0
0
0
0
0
0
0
0
0
0
0
0
0
0
0
0
0
0
0
0
0
0
0
0
0
0
0
0
0
0
0
0
0
0
0
0
0
0
0
0
0
0
0
0
0
0
0
0
0
0
0
0
0
0
0
0
0
0
0
0
0
0
0
0
0
0
0
0
0
0
0
0
0
0
0
0
0
0
0
0
0
0
0
0
0
0
0
0
0
0
0
0
0
0
0
0
0
0
0
0
0
0
0
0
0
0
0
0
0
0
0
0
0
0
0
0
0
0
0
0
0
0
0
0
0
0
0
0
0
0
0
0
0
0
0
0
0
0
0
0
0
0
0
0
0
0
0
0
0
0
0
0
0
0
0
0
0
0
0
0
0
0
0
0
0
0
0
0
0
0
0
0
0
0
0
0
0
0
0
0
0
0
0
0
0
0
0
0
0
0
0
0
0
0
0
0
0
0
0
0
0
0
0
0
0
0
0
0
0
0
0
0
0
0
0
0
0
0
0
0
0
0
0
0
0
0
0
0
0
0
0
0
0
0
0
0
0
0
0
0
0
0
0
0
0
0
0
0
0
0
0
0
0
0
0
0
0
0
0
0
0
0
0
0
0
0
0
0
0
0
0
0
0
0
0
0
0
0
0
0
0
0
0
0
0
0
0
0
0
0
0
0
0
0
0
0
0
0
0
0
0
0
0
0
0
0
0
0
0
0
0
0
0
0
0
0
0
0
0
0
0
0
0
0
0
0
0
0
0
0
0
0
0
0
0
0
0
0
0
0
0
0
0
0
0
0
0
0
0
0
0
0
0
0
0
0
0
0
0
0
0
0
0
0
0
0
0
0
0
0
0
0
0
0
0
0
0
0
0
0
0
0
0
0
0
0
0
0
0
0
0
0
0
0
0
0
0
0
0
0
0
0
0
0
0
0
0
0
0
0
0
0
0
0
0
0
0
0
0
0
0
0
0
0
0
0
0
0
0
0
0
0
0
0
0
0
0
0
0
0
0
0
0
0
0
0
0
0
0
0
0
0
0
0
0
0
0
0
0
0
0
0
0
0
0
0
0
0
0
0
0
0
0
0
0
0
0
0
0
0
0
0
0
0
0
0
0
0
0
0
0
0
0
0
0
0
0
0
0
0
0
0
0
0
0
0
0
0
0
0
0
0
0
0
0
0
0
0
0
0
0
0
0
0
0
0
0
0
0
0
0
0
0
0
0
0
0
0
0
0
0
0
0
0
0
0
0
0
0
0
0
0
0
0
0
0
0
0
0
0
0
0
0
0
0
0
0
0
0
0
0
0
0
0
0
0
0
0
0
0
0
0
0
0
0
0
0
0
0
0
0
0
0
0
0
0
0
0
0
0
0
0
0
0
0
0
0
0
0
0
0
0
0
0
0
0
0
0
0
0
0
0
0
0
0
0
0
0
0
0
0
0
0
0
0
0
0
0
0
0
0
0
0
0
0
0
0
0
0
0
0
0
0
0
0
0
0
0
0
0
0
0
0
0
0
0
0
0
0
0
0
0
0
0
0
0
0
0
0
0
0
0
0
0
0
0
0
0
0
0
0
0
0
0
0
0
0
0
0
0
0
0
0
0
0
0
0
0
0
0
0
0
0
0
0
0
0
0
0
0
0
0
0
0
0
0
0
0
0
0
0
0
0
0
0
0
0
0
0
0
0
0
0
0
0
0
0
0
0
0
0
0
0
0
0
0
0
0
0
0
0
0
0
0
0
0
0
0
0
0
0
0
0
0
0
0
0
0
0
0
0
0
0
0
0
0
0
0
0
0
0
0
0
0
0
0
0
0.160292
0
0
0
0
0
0
0.160173
0
0
0
0
0.160275
0
0.160063
0
0
0.160292
0.160292
0
0.160292
0.160292
0.160292
0.160156
0.160292
0.1584
0.160279
0
0
0.160292
0.158688
0.160292
0.160292
0.160292
0.160292
0.160292
0.160292
0
0
0
0.160292
0.160292
0.160292
0.160292
0.160292
0.159948
0.160292
0.160292
0.158217
0.159346
0.160267
0
0
0.159359
0.159195
0.160292
0.160292
0.160292
0
0.157957
0.160292
0.160292
0.160292
0
0.158961
0.160292
0.160291
0.160292
0.16016
0
0
0
0
0.160284
0.160292
0.160292
0.159074
0.160292
0.160292
0
0
0.160292
0.159694
0.160292
0.160292
0.160289
0.160292
0.156243
0.159786
0.160292
0.160283
0.160292
0.160292
0.15609
0.160292
0.155802
0.156053
0.15896
0.160286
0.160292
0
0
0.156065
0.157049
0.158857
0.160292
0.160292
0.157909
0.159757
0.160224
0.156112
0.156178
0.160285
0
0.160292
0.160292
0.160292
0.160292
0.160292
0.160292
0.15659
0.160202
0.160292
0
0
0
0.160292
0.160292
0.157686
0.160292
0.156564
0.160282
0.15869
0.160292
0.159415
0.159877
0.160292
0.160292
0.160292
0.160292
0.160292
0.160292
0.160292
0.160292
0.160292
0.159759
0.156128
0.160292
0.160292
0.160292
0.160292
0.160291
0.158819
0.157527
0.160113
0.160292
0.155506
0.158827
0.160292
0.15636
0.160292
0.15873
0.157477
0.157365
0.157188
0.157501
0
0.159014
0.159702
0.157729
0.156001
0.156632
0.160292
0.157792
0.159549
0.1569
0.158265
0.160292
0.160292
0.156577
0.160292
0.159623
0.160292
0.160291
0.155255
0.160292
0.157001
0.160292
0.160292
0.160276
0.157135
0.160292
0.158337
0.158195
0
0.160292
0.160292
0.160292
0.158459
0.157123
0.157594
0.160292
0.157486
0.160292
0.160292
0.160256
0.160292
0.156333
0.16015
0.157658
0.160292
0.160292
0.157309
0.158676
0.160292
0.160292
0
0.160292
0.156373
0.160292
0.160292
0.16029
0.156829
0.159212
0.160292
0.156352
0.155783
0.15865
0.156234
0.156315
0.15646
0.156974
0.160292
0.158092
0.158114
0.160292
0
0.157877
0.157248
0.159049
0.158106
0.158215
0.160248
0.159698
0.160292
0.156386
0.159468
0.160292
0.156648
0.157969
0.158248
0.157713
0.158718
0.160292
0.160292
0.160285
0.157893
0.15829
0.160292
0.160202
0.158392
0.160215
0.155976
0.155623
0.160292
0.155972
0.156162
0.15692
0.156299
0.160292
0.157139
0.159675
0.158718
0.159468
0.160292
0.160292
0
0.159396
0.156479
0.160277
0.160292
0.156568
0.160292
0.156911
0.156914
0.156967
0.158711
0.160292
0
0
0.158074
0.160292
0.160292
0.160291
0.160292
0.154931
0.160292
0.15648
0.157015
0.160292
0.157136
0.160292
0.158563
0.15992
0.160292
0.15606
0.158398
0.156369
0.15802
0.160023
0.160292
0.157622
0.15758
0.156381
0.160292
0.156529
0.160292
0.160292
0.158135
0.160292
0.15762
0.160292
0.158703
0.159407
0.160292
0
0
0.160292
0.160292
0.15605
0.159246
0.156639
0.157106
0.159065
0.156126
0.15635
0.157232
0.160289
0.156486
0.159444
0.159086
0.158942
0.158227
0.160264
0.160292
0.160292
0.160292
0.15451
0.156659
0.160292
0.160292
0.15869
0.16028
0.155705
0.160194
0.156016
0.157788
0.160292
0.160292
0.160292
0
0.15942
0.160292
0.160292
0.15891
0.156376
0.158165
0.156896
0.15592
0.158909
0.156301
0.157391
0.157095
0.157382
0.158222
0.156702
0.1576
0.158279
0.157997
0.157597
0.159593
0.160292
0.160292
0
0
0.160292
0.160292
0.160292
0.160292
0.160292
0.15521
0.160291
0.160292
0.160292
0.155944
0.15706
0.160292
0.156736
0.158857
0.157159
0.157224
0.158026
0.158141
0.160292
0.160292
0.160292
0
0.160292
0.160292
0.160292
0.159094
0.158046
0.159107
0.156404
0.156589
0.156223
0.156391
0.160292
0.156967
0.157641
0.157812
0.15779
0.157452
0.160292
0.157403
0.160292
0.160292
0.160251
0.160292
0.160292
0.160292
0.160292
0.160292
0.159871
0.157164
0.159337
0.155713
0.155746
0.155866
0.156677
0.160292
0.156766
0.157997
0.158836
0.158711
0.160292
0.159106
0.15963
0.160292
0.160292
0.160292
0.160292
0
0
0
0.158985
0.158615
0.160292
0.160292
0.16029
0.160292
0.155642
0.156465
0.155973
0.156833
0.156924
0.156889
0.157068
0.158748
0.160292
0.160292
0.158132
0.158085
0.160066
0.158273
0.158647
0.160292
0.158849
0.160292
0.160292
0.16021
0.160292
0.160292
0.160285
0.159814
0.159583
0.15621
0.157257
0.160292
0.157026
0.160292
0.160283
0.157096
0.157127
0.157444
0.15741
0.157703
0.157825
0.160292
0
0.160292
0.15536
0.157739
0.156324
0.155024
0.160292
0.155433
0.155841
0.157501
0.157525
0.156696
0.160292
0.156489
0.158926
0.160292
0.156709
0.160292
0.160292
0.155787
0.156642
0.160292
0.160292
0.156716
0.155961
0.160292
0.160292
0.156257
0.157674
0.160292
0.155936
0.157637
0.159297
0.156656
0.157185
0.157274
0.160292
0.157257
0.158773
0.160292
0.160292
0.160292
0.158878
0.158102
0.155731
0.157027
0.158459
0.155968
0.156348
0.155895
0.155884
0.157057
0.157438
0.160292
0.156828
0.159559
0.157425
0.158094
0.157406
0.157564
0.158924
0
0.158994
0.160292
0.159209
0.160086
0.154963
0.160292
0.158352
0.156203
0.155798
0.159159
0.160292
0.156352
0.157507
0.15648
0.157104
0.156347
0.158145
0.157217
0.158133
0.160292
0.158424
0.160292
0.160292
0.159098
0.160292
0.160292
0.156502
0.158559
0.155727
0.154642
0.154721
0.160292
0.154883
0.156615
0.15592
0.155927
0.157846
0.157742
0.156987
0.157378
0.160292
0.157937
0.160291
0.160292
0.160292
0
0.160292
0.16029
0.15667
0.160288
0.155185
0.160292
0.15674
0.157853
0.15739
0.156041
0.156098
0.160292
0.156714
0.158361
0.156957
0.157559
0.158444
0.160067
0.160292
0.159569
0
0.160292
0.157182
0.160292
0.15573
0.154996
0.158604
0.159194
0.160292
0.159991
0.15787
0.158547
0.160292
0.156211
0.156607
0.15798
0.156691
0.160292
0.157176
0.15742
0.160292
0.157959
0.160051
0.160292
0.160292
0.160057
0.15824
0.157351
0.159384
0.160292
0.155106
0.156823
0.157109
0.15676
0.157754
0.158461
0.157842
0.158643
0.159
0.160292
0.159905
0.159334
0.160292
0.160292
0
0.160292
0.155849
0.159786
0.157144
0.160292
0.155514
0.156248
0.158328
0.1556
0.156128
0.15674
0.156634
0.156714
0.158345
0.157709
0.160292
0.160292
0.160292
0.160292
0.160292
0
0.159111
0.160292
0.158682
0.158835
0.154941
0.160292
0.155194
0.155016
0.158005
0.155139
0.155927
0.155391
0.159168
0.157391
0.160292
0.160292
0
0.159255
0.160292
0.160292
0.158263
0.160292
0.160292
0.157088
0.155383
0.157703
0.160292
0.156335
0.157228
0.157128
0.160292
0.158006
0.160292
0.160292
0.160292
0
0.158526
0.159196
0.158465
0.159425
0.160292
0.160292
0.155276
0.157658
0.15488
0.155318
0.160287
0.155266
0.160292
0.155604
0.156455
0.155855
0.155878
0.155994
0.157982
0.160292
0.159606
0.159603
0
0
0.156674
0.157506
0.156443
0.157532
0.156099
0.157414
0.155143
0.156224
0.160287
0.155748
0.156209
0.158175
0.155997
0.155822
0.160292
0.156036
0.156441
0.158689
0.156776
0.15722
0.157677
0.1585
0.15833
0.160292
0.160292
0.160292
0
0.158754
0.15771
0.160292
0.155238
0.155028
0.160292
0.160292
0.155346
0.155934
0.157283
0.156305
0.156669
0.157993
0.157129
0.158051
0
0.160142
0.158047
0.157076
0.158741
0.156014
0.160292
0.160292
0.155685
0.160291
0.155459
0.158706
0.159261
0.156018
0.160292
0.157964
0.155525
0.160292
0.15638
0.157201
0.160291
0.158064
0.157205
0.158604
0.158803
0.159709
0.158365
0.160292
0.159997
0.155687
0.160292
0.160292
0.160292
0.156633
0.1588
0.159894
0.160292
0.156353
0.158173
0.158992
0.160292
0.15622
0.156292
0.15783
0.159232
0.158683
0.15958
0.160292
0.160292
0.157151
0.160292
0.160292
0.160292
0.155771
0.15484
0.159163
0.155978
0.155695
0.157262
0.156466
0.160292
0.156716
0.156745
0.157163
0.157162
0.157191
0.157363
0.160292
0.157994
0
0.157451
0.159569
0.160275
0.157485
0.160292
0.156482
0.155805
0.155396
0.156016
0.155264
0.159455
0.15858
0.156218
0.156448
0.156402
0.157743
0.157878
0.157341
0.158892
0.160292
0.159144
0
0.160292
0.156149
0.157309
0.160291
0.156174
0.156667
0.156572
0.15657
0.157149
0.157801
0.157067
0.157403
0.157233
0.157483
0.157702
0.15845
0.158941
0
0.160292
0.160292
0.156522
0.156262
0.160292
0.157893
0.160292
0.160292
0.155303
0.158147
0.160292
0.157179
0.159255
0.160292
0.156091
0.156221
0.156991
0.158077
0.158243
0.157601
0.157755
0.160292
0.159217
0.160292
0.160292
0
0.159373
0.157477
0.160292
0.156215
0.157957
0.160289
0.160292
0.155984
0.157465
0.158645
0.155037
0.155658
0.155968
0.15712
0.155895
0.156463
0.156704
0.157107
0.156034
0.156084
0.156411
0.157725
0.160262
0.157947
0.158801
0.160292
0.159317
0.160292
0.160292
0.154363
0.160292
0.157918
0.156
0.156587
0.155315
0.155292
0.155813
0.160292
0.1557
0.155698
0.155804
0.155939
0.158024
0.156926
0.157483
0.160292
0
0.160292
0.158967
0.155647
0.160165
0.1552
0.156167
0.15956
0.160292
0.157903
0.15511
0.156242
0.158039
0.156785
0.156322
0.15762
0.15749
0.160292
0.157751
0.158606
0.158391
0
0
0.158063
0.15871
0.155429
0.159261
0.160292
0.160292
0.15543
0.155906
0.156911
0.158468
0.155866
0.157249
0.156933
0.156603
0.157138
0.159724
0.160292
0
0
0
0.155706
0.157531
0.160292
0.159616
0.157996
0.15494
0.154784
0.159876
0.156625
0.157549
0.160292
0.155526
0.15584
0.156212
0.156643
0.156864
0.157616
0.158798
0.159879
0
0.15857
0.160292
0.160289
0.157134
0.157015
0.154616
0.155238
0.155867
0.15775
0.158013
0.156207
0.15849
0.156128
0.156618
0.156366
0.157599
0.15771
0.156698
0.158671
0.158556
0.159493
0
0.157655
0.160037
0.155108
0.155486
0.160292
0.155984
0.15973
0.156141
0.157388
0.160292
0.155809
0.155878
0.157981
0.155934
0.160292
0.156193
0.156806
0.158456
0.160292
0.158984
0.159882
0.160292
0.160292
0.160292
0.160292
0.160292
0.160292
0.156075
0.160292
0.158446
0.154813
0.154911
0.155397
0.160291
0.155868
0.155998
0.159629
0.155871
0.156071
0.15648
0.156863
0.157868
0.156642
0.158643
0.158918
0.159424
0.160292
0.160118
0.155997
0.160292
0.160292
0.160292
0.157803
0.15509
0.154666
0.157184
0.155295
0.155298
0.15567
0.157154
0.155951
0.156177
0.156183
0.157453
0.156197
0.157907
0.157372
0.157856
0.159009
0.157013
0.157899
0.155522
0.156414
0.154413
0.154748
0.157408
0.156354
0.157243
0.156389
0.156231
0.158035
0.157263
0.158138
0.160292
0.160292
0.159318
0.160292
0.160292
0.158909
0.158382
0.154479
0.158704
0.154784
0.157639
0.155178
0.155266
0.155722
0.156269
0.156719
0.157281
0.157345
0.15671
0.160292
0.157069
0.157246
0.157238
0.159739
0.159716
0.159245
0.160292
0
0.156505
0.157366
0.157531
0.155366
0.155824
0.155648
0.155538
0.156229
0.155493
0.155596
0.156118
0.157106
0.157235
0.156466
0.157458
0.158432
0.160292
0.157867
0.157416
0.160214
0.160292
0.160292
0.158202
0.155677
0.160292
0.155827
0.156651
0.160292
0.157575
0.155444
0.156644
0.157063
0.15587
0.155977
0.156123
0.158939
0.157313
0.157493
0.159871
0.158789
0.160292
0.160292
0.160292
0.160292
0.160292
0.156376
0.158453
0.157715
0.157076
0.154632
0.154981
0.15537
0.15679
0.160292
0.155264
0.155839
0.158195
0.155635
0.15621
0.156349
0.15647
0.15625
0.157274
0.157874
0.160292
0.158066
0.158323
0
0.159475
0.160292
0.160292
0.156282
0.157249
0.159032
0.155075
0.155252
0.158284
0.156988
0.156419
0.156395
0.157952
0.156123
0.157291
0.160292
0.157217
0.160292
0.160292
0
0
0.158519
0.154325
0.160292
0.156385
0.155759
0.155055
0.154735
0.155043
0.155788
0.155242
0.155303
0.155378
0.156016
0.157821
0.155905
0.156107
0.156309
0.158464
0
0.160292
0.160292
0.160292
0.155604
0.160292
0.160265
0.155329
0.155992
0.156273
0.157298
0.155342
0.155443
0.156404
0.156217
0.156398
0.15677
0.158124
0.15763
0
0
0.159088
0.15858
0.157317
0.156186
0.157193
0.157373
0.154349
0.157068
0.154937
0.155214
0.155639
0.160292
0.155447
0.155901
0.156691
0.157272
0.157629
0
0.160292
0.156828
0.159145
0.160292
0.160292
0.157708
0.156179
0.155544
0.156116
0.160292
0.159894
0.155156
0.155208
0.156368
0.158187
0.156437
0.158175
0.156913
0.156749
0.156711
0.160292
0.157607
0.15951
0.160292
0
0.157675
0.15634
0.160292
0.157477
0.160292
0.160292
0.154129
0.157737
0.159203
0.160292
0.154987
0.155429
0.160292
0.157731
0.160292
0.154989
0.155733
0.157918
0.155795
0.15622
0.156726
0.160292
0.160068
0.156579
0.160292
0.159492
0.160292
0.156566
0.160292
0.156219
0.157881
0.158515
0.158873
0.160006
0.155066
0.160292
0.155848
0.156088
0.155616
0.159205
0.156278
0.156458
0.159949
0.160292
0.156904
0
0
0.156335
0.160292
0.158907
0.156914
0.15877
0.156282
0.155413
0.160197
0.159348
0.154367
0.158809
0.158358
0.158947
0.155472
0.156049
0.157977
0.154978
0.155638
0.156762
0.156057
0.157307
0.156231
0.156432
0.156441
0.156878
0.157808
0.15837
0.160292
0.158276
0
0
0
0
0
0
0
0
0
0
0
0
0
0
0
0
0
0
0
0
0
0
0
0
0
0
0
0
0
0
0
0
0
0
0
0
0
0
0
0
0
0
0
0
0
0
0
0
0
0
0
0
0
0
0
0
0
0
0
0
0
0
0
0
0
0
0
0
0
0
0
0
0
0
0
0
0
0
0
0
0
0
0
0
0
0
0
0
0
0
0
0
0
0
0
0
0
0
0
0
0
0
0
0
0
0
0
0
0
0
0
0
0
0
0
0
0
0
0
0
0
0
0
0
0
0
0
0
0
0
0
0
0
0
0
0
0
0
0
0
0
0
0
0
0
0
0
0
0
0
0
0
0
0
0
0
0
0
0
0
0
0
0
0
0
0
0
0
0
0
0
0
0
0
0
0
0
0
0
0
0
0
0
0
0
0
0
0
0
0
0
0
0
0
0
0
0
0
0
0
0
0
0
0
0
0
0
0
0
0
0
0
0
0
0
0
0
0
0
0
0
0
0
0
0
0
0
0
0
0
0
0
0
0
0
0
0
0
0
0
0
0
0
0
0
0
0
0
0
0
0
0
0
0
0
0
0
0
0
0
0
0
0
0
0
0
0
0
0
0
0
0
0
0
0
0
0
0
0
0
0
0
0
0
0
0
0
0
0
0
0
0.160292
0.160292
0
0.160292
0
0.160292
0.160292
0
0.160226
0
0
0
0.160292
0.160292
0.160284
0.160265
0.160242
0
0
0.160292
0
0.160292
0.16025
0.160282
0.160231
0
0
0.160282
0.16027
0.16024
0.160138
0.159977
0
0
0
0.160282
0.160136
0.160266
0.160284
0.160279
0.160291
0.160292
0.160275
0.160267
0.160292
0.160148
0.160232
0
0
0
0.160292
0.159333
0.15918
0.160292
0.160253
0
0.160247
0.159926
0
0
0.160292
0.160292
0.160292
0.159594
0
0.160292
0.160287
0.159978
0.160292
0.160292
0.160292
0.16029
0
0.16029
0.160292
0.159996
0.160292
0
0
0
0
0.160292
0.160215
0.160066
0.160292
0.160288
0.160278
0.159043
0.160291
0.160288
0.160292
0.160292
0.158267
0.160292
0.160292
0.160211
0.16007
0.160292
0.160292
0.159434
0.159805
0.160292
0.160292
0.160292
0.160292
0.160292
0.160292
0.16026
0.160187
0.160292
0.160292
0.160292
0.160261
0.160251
0.160283
0.160262
0.160292
0.160233
0.160278
0.160292
0.160292
0.160292
0.16029
0.156448
0.160292
0.160269
0
0.160281
0.160287
0.160288
0.160292
0.160102
0.160232
0.160292
0.16028
0.160292
0.160292
0.160292
0.160292
0.160292
0.160292
0.160292
0.160282
0.160241
0.160288
0.160292
0.160272
0.160261
0.160292
0.159834
0.160292
0.160176
0
0.160285
0.160116
0.160243
0.160292
0.160278
0.160292
0.160292
0.160292
0.157541
0.160292
0.160289
0.160292
0.160292
0.160292
0.160273
0.160208
0.159932
0.160168
0.160291
0.16027
0.160292
0.160292
0.160292
0
0
0
0
0
0.160281
0.160257
0.158948
0.160292
0.160292
0.160196
0
0.160292
0.160284
0.160292
0.160292
0.159986
0.160292
0.160227
0.160292
0.15811
0.160292
0.160287
0.160288
0.160292
0.160292
0.159702
0.160292
0.160116
0.160292
0.160292
0.160292
0.160292
0.160289
0.160292
0.160292
0.160291
0
0.160292
0.160292
0.160268
0.160292
0.160275
0.160288
0.160223
0.15895
0.160285
0.160292
0.160286
0
0.160277
0.16028
0.160283
0.160292
0.160292
0.160201
0.160292
0.160292
0.160292
0.160292
0.158871
0.160102
0.160292
0.160289
0.160291
0.160292
0.160292
0
0.160292
0.160292
0.159423
0.160292
0.160292
0.160292
0.160292
0.160194
0.159893
0.160292
0.160292
0.160292
0.160292
0.160292
0.160284
0.160292
0
0.160292
0.160292
0.16026
0.160292
0.160292
0.160206
0.160185
0.160276
0.160291
0.160292
0.158379
0.16015
0.160292
0.160247
0.160292
0.160283
0
0.160283
0.160276
0.160224
0.160195
0.160292
0.160292
0.156298
0.159963
0.158574
0.156948
0.159091
0.160292
0.15814
0.160292
0.160292
0.159984
0.160292
0.160292
0.160292
0.160292
0.160292
0.160292
0
0
0.160288
0.160175
0.160181
0.157831
0.160292
0.160289
0.157559
0.15968
0.158801
0.160292
0.160292
0.159977
0.160292
0.160292
0.160292
0.160292
0.160292
0.160291
0.160292
0.158061
0.160038
0.160292
0.160292
0.159256
0.160292
0.160292
0.160282
0.160292
0.160292
0.158987
0.160292
0.160292
0.160292
0.160292
0.160292
0.160292
0.160292
0.160292
0.160292
0.160292
0
0
0.160268
0.160283
0.160292
0.160284
0.159836
0.160292
0.160292
0.160292
0.160292
0.157943
0.158491
0.160284
0.160292
0.158591
0.160152
0.158868
0.160292
0.160292
0.160292
0.160292
0.160292
0.160292
0.160292
0.160292
0.160292
0.16029
0.160285
0.160292
0.160287
0.160285
0.160288
0.160292
0.160292
0.160292
0.157111
0.1601
0.159781
0.160281
0.159062
0.15778
0.159479
0.158702
0.160246
0.160292
0.160292
0.160292
0.160292
0.160292
0.160292
0.160292
0.160286
0.160292
0.160289
0.160289
0.160219
0.158822
0.158733
0.15717
0.160008
0.157618
0.160053
0.160292
0.160292
0.160292
0.159026
0.160292
0.160292
0.160292
0.160292
0.15904
0.160292
0.160292
0.160292
0.160292
0.160292
0.160292
0.160292
0.160292
0.160292
0.160292
0.160289
0
0.160292
0.160197
0.160292
0.158331
0.159065
0.159898
0.158155
0.15934
0.160292
0.160289
0.160292
0.160292
0.160292
0.160292
0.160292
0.160291
0.160292
0.160292
0.160292
0.160292
0
0
0.160292
0.160292
0.160226
0.160157
0.160292
0.160292
0.159421
0.160292
0.156737
0.160292
0.160292
0.160292
0
0
0
0
0.160291
0.160292
0.160269
0.160278
0.160292
0.159442
0.159254
0.158455
0.160292
0.159954
0.158624
0.160292
0.159489
0.160292
0.160292
0.160292
0.160292
0.160292
0.160292
0
0
0
0.160277
0.160292
0.160292
0.160292
0.160292
0.159375
0.157971
0.157414
0.160292
0.160292
0.160292
0.160273
0.160292
0.159124
0.160292
0.160292
0.160292
0.160292
0.160284
0.160292
0.160292
0.160286
0
0
0.160292
0.160204
0.160208
0.160286
0.160287
0.156858
0.160292
0.157446
0.157625
0.159119
0.159808
0.160292
0.160292
0.160292
0.160282
0.160292
0.160292
0.160292
0.160291
0
0.160268
0.160214
0.160291
0.15852
0.158201
0.160292
0.160292
0.158875
0.158774
0.1602
0.160292
0.160292
0.160292
0.160292
0
0
0.160292
0.160292
0.160292
0.160229
0.160292
0.160292
0.158294
0.160267
0.158721
0.160255
0.159076
0.160292
0.160292
0.160292
0.158883
0.160292
0.160292
0.160292
0.160292
0.160292
0.160292
0.160292
0.160292
0
0.160292
0.160102
0.160184
0.160193
0.160292
0.160292
0.160215
0.160292
0.160105
0.160292
0.158206
0.158484
0.159902
0.160292
0.160292
0.160289
0.160292
0
0.160292
0.160287
0.160263
0.160147
0.160275
0.16029
0.16029
0.160286
0.160292
0.160265
0.160252
0.160292
0.160292
0.160292
0.160292
0.158166
0.160292
0.160084
0.160292
0.160292
0.160292
0.160292
0.160292
0
0
0
0.160292
0.160292
0.160121
0.160285
0.160292
0.157777
0.159896
0.160284
0.159484
0.160292
0.160292
0.160292
0.160292
0.160292
0.160292
0.160292
0
0
0
0.16029
0.16017
0.160292
0.158129
0.160292
0.160292
0.157281
0.160289
0.159596
0.16029
0.158102
0.157473
0.159469
0.159997
0.159306
0.160292
0.16029
0.160292
0.160292
0.160292
0.160292
0.160292
0
0.160178
0.160191
0.160292
0.160291
0.160292
0.158676
0.160292
0.160292
0.158157
0.160292
0.160292
0.159436
0.160292
0.160292
0.160292
0.160292
0.160292
0.160292
0.160292
0.160292
0.160287
0
0
0.160292
0.160292
0.160289
0.160242
0.160292
0.160189
0.160292
0.16023
0.159129
0.160289
0.160292
0.15941
0.158453
0.160292
0.160292
0.160292
0.16029
0.160292
0.16029
0.160292
0.160284
0.160292
0.160275
0.160292
0.160292
0.15716
0.157028
0.160292
0.158471
0.15863
0.160292
0.160292
0.159251
0.159235
0.160292
0.160292
0.160292
0.160292
0.160292
0
0
0.160292
0.16006
0.160292
0.160292
0.160292
0.156908
0.160292
0.160292
0.157806
0.160292
0.160287
0.15737
0.160288
0.16028
0.160292
0.160169
0.160287
0.160292
0.160292
0
0
0.160292
0.160288
0.159527
0.160264
0.160287
0.160265
0.158384
0.157541
0.15663
0.159897
0.160259
0.157568
0.160292
0.15926
0.160292
0.16029
0.160292
0
0
0.160286
0.160292
0.160269
0.160292
0.15897
0.160002
0.160292
0.160292
0.160292
0.159296
0.159971
0.160292
0.160292
0.159041
0.158776
0.159828
0.160292
0.160292
0.160289
0.160292
0.160292
0.160292
0.160292
0.155473
0.160291
0.160264
0.160285
0.157231
0.157975
0.156504
0.160292
0.160292
0.160292
0.160292
0.160292
0.159609
0.160292
0.160292
0.160292
0.160292
0.160292
0.160292
0.160292
0
0
0
0.160292
0.160289
0.156705
0.160239
0.160292
0.156344
0.156887
0.158565
0.160292
0.160234
0.160292
0.160291
0.160292
0.160292
0.160292
0
0.160292
0.160292
0.160281
0.160292
0.160292
0.158714
0.15704
0.157081
0.156983
0.157002
0.158505
0.158333
0.157323
0.157574
0.157748
0.160244
0.160283
0.160019
0.160292
0.160053
0.160292
0.160292
0.160292
0.160292
0.160292
0.160292
0.160292
0.160292
0.160292
0.160291
0.16029
0.160292
0
0.160292
0.160282
0.160287
0.160291
0.160292
0.160292
0.160288
0.160292
0.160292
0.159993
0.158068
0.156943
0.160152
0.160292
0.159543
0.159612
0.160292
0.160292
0.160292
0.159896
0.160292
0.160292
0.160292
0
0.160292
0.160292
0.15848
0.160292
0.157051
0.159317
0.160292
0.160292
0.159506
0.159178
0.160285
0.160292
0.160292
0.160292
0.160292
0
0.160292
0.16029
0.160287
0.160158
0.160246
0.160292
0.160292
0.160292
0.15659
0.157652
0.159295
0.160292
0.160292
0.160292
0.159784
0.158539
0.15846
0.160292
0.160292
0.160292
0.160292
0.160292
0.160292
0.160292
0.160292
0.160292
0.160292
0.160292
0
0.160256
0.160138
0.160272
0.160202
0.160289
0.160292
0.160292
0.157849
0.160176
0.160292
0.160292
0.160292
0.160292
0.160292
0
0.160292
0.160289
0.160292
0.159948
0.16015
0.160292
0.160286
0.160209
0.15773
0.156665
0.158611
0.160291
0.160292
0.160292
0.160292
0.160292
0.160292
0.160292
0.160292
0.160292
0.160292
0.160292
0.160292
0.160292
0.160292
0.160254
0.160292
0.16029
0.158362
0.160292
0.157815
0.157363
0.158212
0.158968
0.15999
0.159561
0.160292
0.160292
0.160292
0.160292
0.160292
0.160292
0
0
0.160292
0.160292
0.160292
0.160292
0.160292
0.160292
0.1568
0.160292
0.159691
0.160176
0.160292
0.160163
0.156553
0.1593
0.160292
0.160292
0.160292
0.157521
0.160267
0.160292
0.160053
0.15894
0.160292
0.160292
0.159838
0.160131
0.160292
0.160284
0
0.160292
0.160292
0.160292
0.156721
0.15701
0.158218
0.160292
0.157471
0.159395
0.160292
0.160292
0.160292
0.160075
0.160292
0.159147
0.160292
0.160292
0.160287
0.160292
0.160289
0.160292
0.160292
0
0.160292
0.160292
0.160292
0.160292
0.160292
0.16029
0.160277
0.157909
0.156302
0.160292
0.160292
0.158593
0.158382
0.160292
0.160292
0.159946
0.160292
0.160292
0.160292
0.160292
0.160292
0.160292
0.160292
0
0
0.15926
0.160292
0.160292
0.160292
0.157579
0.158258
0.157271
0.15924
0.160292
0.156864
0.159512
0.158496
0.15819
0.158361
0.159711
0.160292
0.160292
0.160292
0.160292
0.160292
0.160292
0.160292
0.160292
0.160292
0.160292
0.160178
0.158595
0.160244
0.159646
0.160292
0.156024
0.15978
0.160292
0.160292
0.160292
0.160292
0.15771
0.158939
0.157075
0.159977
0.160292
0.159986
0.159196
0.160292
0.160292
0.160292
0
0
0
0.15858
0.160288
0.158946
0.15834
0.158823
0.158048
0.158346
0.160292
0.159537
0.160292
0.160292
0.160292
0.160251
0.160292
0.160292
0.160289
0.160292
0.160292
0.16029
0.160087
0.160292
0.156099
0.158686
0.160292
0.1596
0.15766
0.157658
0.160292
0.160292
0.160292
0.160292
0.160292
0.160292
0.16029
0.160292
0.160263
0.160286
0.160288
0.158767
0.160238
0.160292
0.160292
0.156233
0.160292
0.160292
0.158037
0.159451
0.160292
0.160292
0.160292
0.160292
0
0.160289
0.16027
0.160175
0.160278
0.157612
0.158062
0.160292
0.156591
0.158101
0.160292
0.159717
0.156956
0.15753
0.160292
0.159492
0.160291
0.160267
0.160292
0.160292
0.160292
0.160292
0.160292
0.156775
0.160292
0.156105
0.156527
0.160292
0.160292
0.15809
0.160292
0.160292
0.160004
0.158989
0.160292
0.160292
0.160292
0.160292
0.160292
0.160292
0.160292
0
0.157159
0.160292
0.160292
0.160292
0.158953
0.160292
0.160292
0.158596
0.160266
0.160292
0.159488
0.160292
0.158254
0.159767
0.160292
0.158643
0.158935
0.159302
0.15974
0.159929
0.160292
0.160292
0.160292
0.160292
0
0.160292
0.160292
0.160292
0.160292
0.160292
0.158717
0.160291
0.159014
0.158348
0.157003
0.157511
0.158901
0.158063
0.157235
0.157831
0.159245
0.160292
0.160292
0.160292
0.160292
0.160257
0.157708
0.158045
0.160292
0.160292
0.156704
0.157461
0.160292
0.15678
0.157136
0.157978
0.157877
0.157892
0.158817
0.160292
0.160292
0.158397
0.160183
0.160292
0.160292
0.160292
0.160292
0.160292
0.160292
0.159675
0.156697
0.160073
0.160292
0.160292
0.158359
0.160292
0.156887
0.160275
0.157969
0.158479
0
0
0
0.160292
0.160292
0.160258
0.155765
0.156245
0.159543
0.156529
0.15756
0.15713
0.157246
0.160292
0.15976
0.160292
0.160292
0.160292
0.160292
0.160292
0.160292
0.160292
0.160292
0.160287
0.160291
0.160292
0.160292
0.159748
0.160292
0.160292
0.15823
0.160292
0.160292
0.159151
0.160292
0.159885
0.157131
0.157401
0.160292
0.160292
0.160292
0.160292
0.160292
0.160292
0
0.160292
0.158035
0.160292
0.160292
0.160288
0.160292
0.160292
0.160292
0.160292
0.159724
0.157226
0.15707
0.158228
0.160292
0.157414
0.158084
0.158133
0.160292
0.15853
0.160292
0.160292
0.160292
0
0.160292
0.160292
0.160266
0.16028
0.156124
0.159131
0.155569
0.160292
0.160292
0.160292
0.160292
0.157969
0.1574
0.159407
0.157892
0.159074
0.160292
0.158725
0.159195
0.160292
0.160292
0.160292
0.160292
0.160292
0
0
0.160292
0.160283
0.160277
0.160292
0.160292
0.160185
0.158741
0.160292
0.157326
0.157796
0.158444
0.157208
0.158746
0.157415
0.157862
0.158062
0.158256
0.160292
0.160292
0.160292
0.160292
0.160292
0.160292
0.160292
0.160292
0.157133
0.15797
0.160289
0.160292
0.160292
0.16029
0.159009
0.159546
0.157733
0.158254
0.160292
0.160292
0.160292
0
0.160292
0.160292
0.160286
0.160292
0.160292
0.160277
0.157628
0.160173
0.156539
0.156393
0.15907
0.159788
0.156584
0.158138
0.157192
0.158297
0.158444
0.157546
0.160292
0.160292
0.159105
0.159866
0.160292
0.158833
0.160292
0.160292
0.160292
0
0.160292
0.160292
0.160292
0.160292
0.155974
0.159943
0.160292
0.158052
0.160292
0.160292
0.15594
0.160289
0.160292
0.156306
0.157449
0.160292
0.160292
0.160291
0.159587
0.160292
0.159743
0.160292
0
0
0
0
0.160292
0.160292
0.160194
0.160164
0.160291
0.16014
0.157343
0.157228
0.156643
0.157412
0.159386
0.160292
0.160292
0.160292
0.160292
0.160292
0.160292
0.160292
0.160292
0.158973
0.160292
0.160292
0.157843
0.160292
0.156532
0.160292
0.156975
0.157971
0.160292
0.158829
0.159189
0.160292
0.160292
0.160292
0
0
0.160096
0.160292
0.160292
0.16029
0.160271
0.160292
0.158913
0.160283
0.155678
0.160292
0.160292
0.160292
0.15621
0.156568
0.160291
0.160292
0.157488
0.160292
0.157476
0.160292
0.160292
0.160292
0.159297
0.158939
0.158232
0.160212
0.160292
0.160292
0.160292
0.160292
0
0
0.160292
0.160292
0.160292
0.160292
0.160284
0.160292
0.158897
0.160292
0.157102
0.160271
0.1595
0.159414
0.156674
0.15701
0.157109
0.157136
0.157804
0.157884
0.159254
0.160292
0.160292
0
0.160292
0.160292
0.160292
0.160292
0.160292
0.16029
0.160292
0.155607
0.157482
0.159706
0.157953
0.158212
0.157124
0.158193
0.158486
0.160292
0.159478
0.160292
0.160292
0.160292
0
0
0.159998
0.16002
0.159843
0.159446
0.156084
0.158648
0.156331
0.15698
0.15846
0.156731
0.157272
0.157451
0.157773
0.158637
0.158179
0.158765
0.160292
0.160292
0.160292
0.160085
0.160292
0.160292
0.160292
0.160292
0.160292
0.160292
0.160292
0.160281
0.160292
0.160292
0.157885
0.160292
0.158074
0.156857
0.15748
0.15781
0.160292
0.160292
0.159794
0.159756
0.160292
0.160264
0.160292
0.16027
0.16025
0.160272
0.157752
0.158289
0.160292
0.15839
0.160292
0.159439
0.159297
0.157345
0.160292
0.160292
0.156582
0.156873
0.157391
0.157143
0.157636
0.160292
0.160292
0
0.160292
0.160292
0.155661
0.157993
0.160292
0.159861
0.157575
0.15665
0.156986
0.160273
0.157442
0.160292
0.160292
0.15766
0.158579
0.160292
0.160292
0.160292
0
0.160292
0.160292
0.159037
0.160292
0.160292
0.160292
0.157313
0.160292
0.160292
0.160292
0.156644
0.15824
0.15803
0.157747
0.159463
0.160292
0.160134
0.160292
0.160292
0.160292
0.160286
0.160292
0.160292
0.160131
0.160292
0.160292
0.157698
0.156482
0.158471
0.157825
0.157959
0.160292
0.158361
0.160292
0.160292
0.159313
0.160292
0.160292
0.160292
0.160284
0.157284
0.159103
0.160292
0.160292
0.159885
0.160276
0.160292
0.157028
0.158714
0.160292
0.157261
0.158537
0.160292
0.157703
0.159722
0.160292