/*--------------------------------*- C++ -*----------------------------------*\
| =========                 |                                                 |
| \\      /  F ield         | OpenFOAM: The Open Source CFD Toolbox           |
|  \\    /   O peration     | Version:  v1906                                 |
|   \\  /    A nd           | Web:      www.OpenFOAM.com                      |
|    \\/     M anipulation  |                                                 |
\*---------------------------------------------------------------------------*/
FoamFile
{
    version     2.0;
    format      ascii;
    class       scalarField;
    location    "2.83/lagrangian/coalCloud1";
    object      YCO2(g);
}
// * * * * * * * * * * * * * * * * * * * * * * * * * * * * * * * * * * * * * //


53638
(
0
0
0
0
0
0
0
0
0
0
0
0
0
0
0
0
0
0
0
0
0
0
0
0
0
0
0
0
0
0
0
0
0
0
0
0
0
0
0
0
0
0
0
0
0
0
0
0
0
0
0
0
0
0
0
0
0
0
0
0
0
0
0
0
0
0
0
0
0
0
0
0
0
0
0
0
0
0
0
0
0
0
0
0
0
0
0
0
0
0
0
0
0
0
0
0
0
0
0
0
0
0
0
0
0
0
0
0
0
0
0
0
0
0
0
0
0
0
0
0
0
0
0
0
0
0
0
0
0
0
0
0
0
0
0
0
0
0
0
0
0
0
0
0
0
0
0
0
0
0
0
0
0
0
0
0
0
0
0
0
0
0
0
0
0
0
0
0
0
0
0
0
0
0
0
0
0
0
0
0
0
0
0
0
0
0
0
0
0
0
0
0
0
0
0
0
0
0
0
0
0
0
0
0
0
0
0
0
0
0
0
0
0
0
0
0
0
0
0
0
0
0
0
0
0
0
0
0
0
0
0
0
0
0
0
0
0
0
0
0
0
0
0
0
0
0
0
0
0
0
0
0
0
0
0
0
0
0
0
0
0
0
0
0
0
0
0
0
0
0
0
0
0
0
0
0
0
0
0
0
0
0
0
0
0
0
0
0
0
0
0
0
0
0
0
0
0
0
0
0
0
0
0
0
0
0
0
0
0
0
0
0
0
0
0
0
0
0
0
0
0
0
0
0
0
0
0
0
0
0
0
0
0
0
0
0
0
0
0
0
0
0
0
0
0
0
0
0
0
0
0
0
0
0
0
0
0
0
0
0
0
0
0
0
0
0
0
0
0
0
0
0
0
0
0
0
0
0
0
0
0
0
0
0
0
0
0
0
0
0
0
0
0
0
0
0
0
0
0
0
0
0
0
0
0
0
0
0
0
0
0
0
0
0
0
0
0
0
0
0
0
0
0
0
0
0
0
0
0
0
0
0
0
0
0
0
0
0
0
0
0
0
0
0
0
0
0
0
0
0
0
0
0
0
0
0
0
0
0
0
0
0
0
0
0
0
0
0
0
0
0
0
0
0
0
0
0
0
0
0
0
0
0
0
0
0
0
0
0
0
0
0
0
0
0
0
0
0
0
0
0
0
0
0
0
0
0
0
0
0
0
0
0
0
0
0
0
0
0
0
0
0
0
0
0
0
0
0
0
0
0
0
0
0
0
0
0
0
0
0
0
0
0
0
0
0
0
0
0
0
0
0
0
0
0
0
0
0
0
0
0
0
0
0
0
0
0
0
0
0
0
0
0
0
0
0
0
0
0
0
0
0
0
0
0
0
0
0
0
0
0
0
0
0
0
0
0
0
0
0
0
0
0
0
0
0
0
0
0
0
0
0
0
0
0
0
0
0
0
0
0
0
0
0
0
0
0
0
0
0
0
0
0
0
0
0
0
0
0
0
0
0
0
0
0
0
0
0
0
0
0
0
0
0
0
0
0
0
0
0
0
0
0
0
0
0
0
0
0
0
0
0
0
0
0
0
0
0
0
0
0
0
0
0
0
0
0
0
0
0
0
0
0
0
0
0
0
0
0
0
0
0
0
0
0
0
0
0
0
0
0
0
0
0
0
0
0
0
0
0
0
0
0
0
0
0
0
0
0
0
0
0
0
0
0
0
0
0
0
0
0
0
0
0
0
0
0
0
0
0
0
0
0
0
0
0
0
0
0
0
0
0
0
0
0
0
0
0
0
0
0
0
0
0
0
0
0
0
0
0
0
0
0
0
0
0
0
0
0
0
0
0
0
0
0
0
0
0
0
0
0
0
0
0
0
0
0
0
0
0
0
0
0
0
0
0
0
0
0
0
0
0
0
0
0
0
0
0
0
0
0
0
0
0
0
0
0
0
0
0
0
0
0
0
0
0
0
0
0
0
0
0
0
0
0
0
0
0
0
0
0
0
0
0
0
0
0
0
0
0
0
0
0
0
0
0
0
0
0
0
0
0
0
0
0
0
0
0
0
0
0
0
0
0
0
0
0
0
0
0
0
0
0
0
0
0
0
0
0
0
0
0
0
0
0
0
0
0
0
0
0
0
0
0
0
0
0
0
0
0
0
0
0
0
0
0
0
0
0
0
0
0
0
0
0
0
0
0
0
0
0
0
0
0
0
0
0
0
0
0
0
0
0
0
0
0
0
0
0
0
0
0
0
0
0
0
0
0
0
0
0
0
0
0
0
0
0
0
0
0
0
0
0
0
0
0
0
0
0
0
0
0.284102
0
0
0
0
0
0
0.283891
0
0
0
0
0.284071
0
0.283695
0
0
0.284102
0.284102
0
0.284102
0.284102
0.284102
0.283861
0.284102
0.280748
0.284079
0
0
0.284102
0.281259
0.284102
0.284102
0.284102
0.284102
0.284102
0.284102
0
0
0
0.284102
0.284102
0.284102
0.284102
0.284102
0.283492
0.284102
0.284102
0.280423
0.282425
0.284057
0
0
0.282447
0.282158
0.284102
0.284102
0.284102
0
0.279963
0.284102
0.284102
0.284102
0
0.281743
0.284102
0.2841
0.284102
0.283867
0
0
0
0
0.284087
0.284102
0.284102
0.281942
0.284102
0.284102
0
0
0.284102
0.283042
0.284102
0.284102
0.284096
0.284102
0.276926
0.283205
0.284102
0.284085
0.284102
0.284102
0.276654
0.284102
0.276143
0.276589
0.281742
0.284091
0.284102
0
0
0.27661
0.278354
0.281558
0.284102
0.284102
0.279878
0.283153
0.283981
0.276693
0.276809
0.284089
0
0.284102
0.284102
0.284102
0.284102
0.284102
0.284102
0.27754
0.283942
0.284102
0
0
0
0.284102
0.284102
0.279482
0.284102
0.277493
0.284084
0.281262
0.284102
0.282548
0.283365
0.284102
0.284102
0.284102
0.284102
0.284102
0.284102
0.284102
0.284102
0.284102
0.283156
0.276722
0.284102
0.284102
0.284102
0.284102
0.284099
0.281491
0.2792
0.283785
0.284102
0.275618
0.281505
0.284102
0.277133
0.284101
0.281333
0.279112
0.278914
0.278599
0.279154
0
0.281836
0.283056
0.27956
0.276497
0.277614
0.284102
0.279671
0.282785
0.278089
0.28051
0.284102
0.284102
0.277517
0.284102
0.282915
0.284102
0.2841
0.275175
0.284102
0.278268
0.284102
0.284102
0.284074
0.278506
0.284102
0.280636
0.280384
0
0.284102
0.284102
0.284102
0.280853
0.278485
0.279319
0.284102
0.279129
0.284102
0.284102
0.284037
0.284102
0.277085
0.28385
0.279433
0.284102
0.284102
0.278815
0.281237
0.284102
0.284102
0
0.284102
0.277155
0.284102
0.284102
0.284098
0.277963
0.282188
0.284102
0.277119
0.276109
0.28119
0.276908
0.277052
0.27731
0.278221
0.284102
0.280202
0.280242
0.284102
0
0.279821
0.278707
0.281899
0.280227
0.280419
0.284024
0.283049
0.284102
0.277178
0.282641
0.284102
0.277644
0.279984
0.280479
0.279531
0.281312
0.284102
0.284102
0.284089
0.27985
0.280553
0.284102
0.283942
0.280734
0.283965
0.276452
0.275826
0.284102
0.276445
0.276781
0.278124
0.277024
0.284102
0.278513
0.283008
0.281312
0.282641
0.284102
0.284102
0
0.282514
0.277344
0.284074
0.284102
0.277501
0.284102
0.278109
0.278114
0.278209
0.2813
0.284102
0
0
0.280171
0.284102
0.284101
0.2841
0.284102
0.274599
0.284102
0.277345
0.278294
0.284102
0.278507
0.284102
0.281037
0.283442
0.284102
0.276601
0.280745
0.277148
0.280074
0.283624
0.284102
0.279369
0.279295
0.277169
0.284102
0.277431
0.284102
0.284102
0.280278
0.284102
0.279365
0.284102
0.281286
0.282533
0.284102
0
0
0.284102
0.284102
0.276583
0.282248
0.277628
0.278455
0.281927
0.276718
0.277114
0.278679
0.284096
0.277355
0.282598
0.281964
0.281708
0.280442
0.284052
0.284102
0.284102
0.284102
0.273854
0.277662
0.284102
0.284102
0.281262
0.284079
0.275971
0.283928
0.276523
0.279663
0.284102
0.284102
0.284102
0
0.282556
0.284102
0.284102
0.281651
0.277161
0.280332
0.278083
0.276353
0.28165
0.277027
0.27896
0.278435
0.278943
0.280432
0.277738
0.27933
0.280534
0.280033
0.279325
0.282863
0.284102
0.284102
0
0
0.284102
0.284102
0.284102
0.284102
0.284102
0.275094
0.2841
0.284102
0.284102
0.276395
0.278373
0.284102
0.277798
0.281558
0.278548
0.278665
0.280086
0.280289
0.284102
0.284102
0.284102
0
0.284102
0.284102
0.284102
0.281978
0.28012
0.282001
0.27721
0.277538
0.27689
0.277188
0.284102
0.278208
0.279402
0.279707
0.279667
0.279068
0.284102
0.278982
0.284102
0.284102
0.284029
0.284102
0.284102
0.284102
0.284102
0.284102
0.283356
0.278558
0.282409
0.275986
0.276044
0.276256
0.277694
0.284102
0.277851
0.280034
0.281521
0.281299
0.284102
0.282
0.282928
0.284102
0.284102
0.284102
0.284102
0
0
0
0.281784
0.281129
0.284102
0.284102
0.284098
0.284102
0.275859
0.277318
0.276446
0.277971
0.278132
0.278071
0.278386
0.281365
0.284102
0.284102
0.280273
0.28019
0.283702
0.280523
0.281185
0.284102
0.281545
0.284102
0.284102
0.283957
0.284102
0.284102
0.284089
0.283254
0.282845
0.276866
0.278723
0.284101
0.278312
0.284102
0.284085
0.278436
0.278493
0.279053
0.278993
0.279513
0.279728
0.284102
0
0.284102
0.27536
0.279576
0.277069
0.274765
0.284102
0.275489
0.276212
0.279155
0.279198
0.277728
0.284102
0.27736
0.28168
0.284101
0.27775
0.284102
0.284102
0.276116
0.277633
0.284102
0.284102
0.277764
0.276425
0.284102
0.284102
0.276949
0.279461
0.284102
0.276382
0.279396
0.282337
0.277657
0.278594
0.278753
0.284102
0.278723
0.281408
0.284102
0.284102
0.284102
0.281595
0.28022
0.276017
0.278315
0.280852
0.276438
0.277111
0.276309
0.276288
0.278367
0.279043
0.284102
0.277962
0.282802
0.27902
0.280207
0.278986
0.279266
0.281677
0
0.281801
0.284102
0.282182
0.283736
0.274657
0.284102
0.280664
0.276855
0.276137
0.282093
0.284102
0.277117
0.279164
0.277345
0.278451
0.27711
0.280296
0.278652
0.280274
0.284102
0.28079
0.284102
0.284102
0.281986
0.284102
0.284102
0.277383
0.281031
0.27601
0.274088
0.274227
0.284102
0.274514
0.277584
0.276353
0.276364
0.279766
0.279582
0.278243
0.278937
0.284102
0.279928
0.2841
0.284102
0.284102
0
0.284102
0.284098
0.277682
0.284095
0.27505
0.284102
0.277805
0.279778
0.278958
0.276567
0.276668
0.284102
0.277761
0.280678
0.278191
0.279258
0.280826
0.283703
0.284102
0.282819
0
0.284102
0.27859
0.284102
0.276016
0.274714
0.28111
0.282156
0.284102
0.283568
0.279808
0.281009
0.284102
0.276868
0.27757
0.280004
0.277718
0.284102
0.278579
0.279011
0.284102
0.279966
0.283674
0.284102
0.284102
0.283685
0.280465
0.27889
0.282492
0.284102
0.274909
0.277953
0.278461
0.277841
0.279604
0.280855
0.279759
0.281179
0.281812
0.284102
0.283416
0.282403
0.284102
0.284102
0
0.284102
0.276228
0.283204
0.278522
0.284102
0.275633
0.276935
0.280621
0.275785
0.276722
0.277805
0.277617
0.277759
0.280651
0.279524
0.284102
0.284102
0.284102
0.284102
0.284102
0
0.282008
0.284102
0.281247
0.281519
0.274617
0.284102
0.275065
0.274751
0.280047
0.274969
0.276364
0.275415
0.282108
0.278959
0.284102
0.284102
0
0.282263
0.284102
0.284102
0.280505
0.284102
0.284102
0.278423
0.2754
0.279513
0.284102
0.277087
0.278671
0.278494
0.284102
0.280049
0.284102
0.284102
0.284102
0
0.280972
0.282158
0.280863
0.282565
0.284102
0.284102
0.275212
0.279433
0.27451
0.275285
0.284092
0.275194
0.284102
0.275793
0.2773
0.276237
0.276279
0.276484
0.280007
0.284102
0.282885
0.28288
0
0
0.277688
0.279164
0.277279
0.27921
0.27667
0.279
0.274976
0.276892
0.284092
0.276048
0.276866
0.280349
0.276489
0.276179
0.284102
0.276559
0.277275
0.28126
0.27787
0.278656
0.279467
0.280926
0.280624
0.284102
0.284102
0.284102
0
0.281376
0.279526
0.284102
0.275145
0.274771
0.284102
0.284102
0.275336
0.276377
0.278769
0.277035
0.27768
0.280027
0.278495
0.28013
0
0.283835
0.280122
0.278401
0.281353
0.276518
0.284102
0.284102
0.275935
0.2841
0.275535
0.28129
0.282274
0.276526
0.284102
0.279975
0.275653
0.284102
0.277168
0.278623
0.284099
0.280152
0.27863
0.281109
0.281462
0.283068
0.280686
0.284102
0.283578
0.27594
0.284102
0.284102
0.284102
0.277616
0.281456
0.283396
0.284102
0.27712
0.280346
0.281797
0.284102
0.276885
0.277012
0.279739
0.282222
0.28125
0.282839
0.284102
0.284102
0.278534
0.284102
0.284102
0.284102
0.276088
0.274438
0.2821
0.276456
0.275954
0.278731
0.27732
0.284102
0.277763
0.277815
0.278555
0.278554
0.278604
0.27891
0.284102
0.280029
0
0.279066
0.28282
0.284072
0.279127
0.284102
0.277349
0.276148
0.275424
0.276523
0.27519
0.282618
0.281067
0.27688
0.277289
0.277207
0.279583
0.279823
0.278872
0.281621
0.284102
0.282067
0
0.284102
0.276758
0.278815
0.2841
0.276802
0.277677
0.277508
0.277504
0.278531
0.279687
0.278386
0.278981
0.278679
0.279123
0.279511
0.280836
0.281707
0
0.284102
0.284102
0.27742
0.276959
0.284102
0.27985
0.284102
0.284102
0.275258
0.2803
0.284102
0.278584
0.282263
0.284102
0.276656
0.276886
0.278251
0.280175
0.280469
0.279333
0.279605
0.284102
0.282197
0.284102
0.284102
0
0.282473
0.279112
0.284102
0.276875
0.279963
0.284097
0.284102
0.276466
0.279092
0.281182
0.274788
0.275887
0.276438
0.278479
0.276308
0.277315
0.277742
0.278457
0.276554
0.276644
0.277224
0.279552
0.284049
0.279946
0.281459
0.284102
0.282373
0.284102
0.284102
0.273594
0.284102
0.279893
0.276495
0.277534
0.27528
0.275239
0.276162
0.284102
0.275962
0.27596
0.276147
0.276387
0.280082
0.278136
0.279123
0.284102
0
0.284102
0.281753
0.275869
0.283877
0.275077
0.27679
0.282805
0.284102
0.279868
0.274916
0.276924
0.280109
0.277886
0.277065
0.279365
0.279136
0.284102
0.279597
0.281113
0.280732
0
0
0.280151
0.281298
0.275483
0.282274
0.284102
0.284102
0.275484
0.276328
0.278108
0.280868
0.276256
0.278709
0.278148
0.277562
0.278512
0.283095
0.284102
0
0
0
0.275974
0.279208
0.284102
0.282904
0.280032
0.274616
0.274339
0.283365
0.277603
0.27924
0.284102
0.275655
0.276211
0.27687
0.277634
0.278026
0.279358
0.281453
0.283369
0
0.281049
0.284102
0.284096
0.278505
0.278293
0.274041
0.275144
0.276258
0.279595
0.280063
0.276862
0.280907
0.276721
0.277589
0.277143
0.279328
0.279525
0.277731
0.281229
0.281025
0.282685
0
0.279429
0.283649
0.274914
0.275584
0.284102
0.276465
0.283105
0.276744
0.278954
0.284102
0.276156
0.276278
0.280005
0.276377
0.284102
0.276836
0.277922
0.280847
0.284102
0.281783
0.283375
0.284102
0.284102
0.284102
0.284102
0.284102
0.284102
0.276627
0.284102
0.28083
0.274391
0.274565
0.275426
0.2841
0.27626
0.276491
0.282926
0.276265
0.276621
0.277346
0.278024
0.279805
0.277632
0.281178
0.281667
0.282562
0.284102
0.283793
0.27649
0.284102
0.284102
0.284102
0.27969
0.274882
0.274131
0.278592
0.275245
0.275251
0.27591
0.27854
0.276407
0.276808
0.276819
0.27907
0.276843
0.279875
0.278927
0.279784
0.281828
0.27829
0.279861
0.275646
0.277229
0.273682
0.274275
0.278991
0.277122
0.278698
0.277183
0.276903
0.280102
0.278733
0.280283
0.284102
0.284102
0.282376
0.284102
0.284102
0.28165
0.280715
0.273798
0.281286
0.274339
0.279399
0.275038
0.275194
0.276002
0.276971
0.277769
0.278764
0.278878
0.277752
0.284102
0.278389
0.278703
0.278689
0.283121
0.28308
0.282245
0.284102
0
0.27739
0.278915
0.279208
0.275371
0.276183
0.275871
0.275675
0.276901
0.275595
0.275777
0.276704
0.278454
0.278683
0.277321
0.279078
0.280805
0.284102
0.279803
0.279004
0.283963
0.284102
0.284102
0.280397
0.275922
0.284102
0.276188
0.277648
0.284102
0.279286
0.275509
0.277635
0.278379
0.276263
0.276454
0.276713
0.281704
0.278822
0.279141
0.283355
0.281438
0.284102
0.284102
0.284102
0.284102
0.284102
0.277161
0.280842
0.279534
0.278402
0.274069
0.274687
0.275378
0.277895
0.284102
0.27519
0.27621
0.280385
0.275848
0.276867
0.277113
0.277327
0.276937
0.278753
0.279815
0.284102
0.280155
0.280612
0
0.282653
0.284102
0.284102
0.276995
0.278708
0.281868
0.274855
0.275168
0.280543
0.278245
0.277237
0.277194
0.279954
0.276712
0.278782
0.284102
0.278652
0.284102
0.284102
0
0
0.280958
0.273525
0.284102
0.277178
0.276068
0.274819
0.274252
0.274798
0.276118
0.275151
0.275258
0.275392
0.276522
0.279722
0.276325
0.276684
0.277042
0.280861
0
0.284102
0.284102
0.284102
0.275792
0.284102
0.284054
0.275305
0.276479
0.276979
0.278795
0.275329
0.275507
0.277211
0.276879
0.277199
0.277859
0.280259
0.279384
0
0
0.281968
0.281066
0.278828
0.276824
0.278608
0.278928
0.273569
0.278388
0.27461
0.275101
0.275855
0.284102
0.275513
0.276318
0.277719
0.278749
0.279382
0
0.284102
0.277962
0.282068
0.284102
0.284102
0.279522
0.276812
0.275687
0.2767
0.284102
0.283396
0.274998
0.275091
0.277146
0.28037
0.277269
0.280349
0.278113
0.277823
0.277754
0.284102
0.279343
0.282716
0.284102
0
0.279462
0.277098
0.284102
0.279113
0.284102
0.284102
0.273178
0.279572
0.282171
0.284102
0.2747
0.275482
0.284102
0.279563
0.284102
0.274703
0.276021
0.279894
0.276131
0.276884
0.277781
0.284102
0.283705
0.277521
0.284102
0.282683
0.284102
0.277498
0.284102
0.276883
0.279828
0.280952
0.281587
0.283595
0.274839
0.284102
0.276225
0.27665
0.275814
0.282175
0.276988
0.277306
0.283494
0.284102
0.278096
0
0
0.277088
0.284102
0.281647
0.278115
0.281404
0.276994
0.275454
0.283934
0.282428
0.273601
0.281473
0.280674
0.281717
0.275558
0.276582
0.279998
0.274683
0.275852
0.277846
0.276596
0.278812
0.276905
0.277259
0.277275
0.27805
0.279699
0.280695
0.284102
0.280528
0
0
0
0
0
0
0
0
0
0
0
0
0
0
0
0
0
0
0
0
0
0
0
0
0
0
0
0
0
0
0
0
0
0
0
0
0
0
0
0
0
0
0
0
0
0
0
0
0
0
0
0
0
0
0
0
0
0
0
0
0
0
0
0
0
0
0
0
0
0
0
0
0
0
0
0
0
0
0
0
0
0
0
0
0
0
0
0
0
0
0
0
0
0
0
0
0
0
0
0
0
0
0
0
0
0
0
0
0
0
0
0
0
0
0
0
0
0
0
0
0
0
0
0
0
0
0
0
0
0
0
0
0
0
0
0
0
0
0
0
0
0
0
0
0
0
0
0
0
0
0
0
0
0
0
0
0
0
0
0
0
0
0
0
0
0
0
0
0
0
0
0
0
0
0
0
0
0
0
0
0
0
0
0
0
0
0
0
0
0
0
0
0
0
0
0
0
0
0
0
0
0
0
0
0
0
0
0
0
0
0
0
0
0
0
0
0
0
0
0
0
0
0
0
0
0
0
0
0
0
0
0
0
0
0
0
0
0
0
0
0
0
0
0
0
0
0
0
0
0
0
0
0
0
0
0
0
0
0
0
0
0
0
0
0
0
0
0
0
0
0
0
0
0
0
0
0
0
0
0
0
0
0
0
0
0
0
0
0
0
0
0.284102
0.284102
0
0.284102
0
0.284102
0.284102
0
0.283984
0
0
0
0.284102
0.284102
0.284087
0.284053
0.284013
0
0
0.284102
0
0.284102
0.284027
0.284084
0.283994
0
0
0.284085
0.284063
0.284009
0.283829
0.283543
0
0
0
0.284084
0.283825
0.284056
0.284087
0.284079
0.284099
0.284102
0.284072
0.284058
0.284102
0.283847
0.283996
0
0
0
0.284102
0.282401
0.28213
0.284101
0.284032
0
0.284022
0.283453
0
0
0.284102
0.284102
0.284102
0.282864
0
0.284102
0.284093
0.283544
0.284102
0.284102
0.284101
0.284098
0
0.284099
0.284102
0.283577
0.284102
0
0
0
0
0.284102
0.283964
0.283702
0.284102
0.284094
0.284077
0.281887
0.284099
0.284094
0.284102
0.284102
0.280512
0.284102
0.284102
0.283959
0.283708
0.284102
0.284102
0.282581
0.283238
0.284102
0.284102
0.284102
0.284102
0.284102
0.284102
0.284045
0.283915
0.284102
0.284102
0.284102
0.284046
0.28403
0.284086
0.284049
0.284102
0.283996
0.284076
0.284101
0.284102
0.284102
0.284097
0.277289
0.284102
0.284061
0
0.284083
0.284092
0.284095
0.284102
0.283765
0.283996
0.284102
0.28408
0.284102
0.284102
0.284102
0.284102
0.284102
0.284102
0.284102
0.284083
0.284011
0.284095
0.284102
0.284066
0.284047
0.284102
0.28329
0.284102
0.283895
0
0.284089
0.28379
0.284014
0.284102
0.284077
0.284102
0.284102
0.284102
0.279225
0.284102
0.284097
0.284101
0.284102
0.284102
0.284068
0.283952
0.283464
0.283882
0.284099
0.284063
0.284102
0.284102
0.284102
0
0
0
0
0
0.284082
0.284039
0.281719
0.284102
0.284102
0.283931
0
0.284102
0.284087
0.284102
0.284102
0.283559
0.284102
0.283987
0.284102
0.280234
0.284102
0.284092
0.284094
0.284102
0.284102
0.283056
0.284102
0.283789
0.284102
0.284102
0.284102
0.284102
0.284096
0.284102
0.284102
0.2841
0
0.284102
0.284102
0.284058
0.284102
0.284071
0.284094
0.283979
0.281724
0.28409
0.284102
0.284091
0
0.284074
0.28408
0.284085
0.284102
0.284102
0.28394
0.284102
0.284102
0.284102
0.284102
0.281584
0.283765
0.284102
0.284096
0.284099
0.284102
0.284102
0
0.284102
0.284102
0.282561
0.284102
0.284102
0.284102
0.284102
0.283929
0.283394
0.284102
0.284102
0.284102
0.284102
0.284102
0.284088
0.284102
0
0.284102
0.284102
0.284045
0.284102
0.284102
0.283949
0.283912
0.284073
0.284099
0.284102
0.28071
0.28385
0.284102
0.284021
0.284102
0.284086
0
0.284086
0.284074
0.283982
0.28393
0.284102
0.284102
0.277023
0.283518
0.281057
0.278175
0.281973
0.284102
0.280288
0.284102
0.284102
0.283556
0.284102
0.284102
0.284102
0.284102
0.284102
0.284102
0
0
0.284095
0.283895
0.283905
0.279739
0.284102
0.284096
0.279258
0.283017
0.281458
0.284102
0.284102
0.283544
0.284102
0.284102
0.284102
0.284102
0.284102
0.284101
0.284102
0.280147
0.283651
0.284102
0.284102
0.282265
0.284102
0.284102
0.284083
0.284102
0.284102
0.281789
0.284102
0.284102
0.284102
0.284102
0.284102
0.284102
0.284102
0.284102
0.284102
0.284102
0
0
0.284059
0.284086
0.284102
0.284087
0.283294
0.284102
0.284102
0.284102
0.284102
0.279939
0.280909
0.284087
0.284102
0.281087
0.283854
0.281578
0.284102
0.284102
0.284102
0.284102
0.284102
0.284102
0.284102
0.284102
0.284102
0.284097
0.284089
0.284102
0.284092
0.28409
0.284094
0.284102
0.284102
0.284102
0.278464
0.283761
0.283195
0.284082
0.281921
0.27965
0.282661
0.281284
0.28402
0.284102
0.284102
0.284102
0.284102
0.284101
0.284102
0.284102
0.284091
0.284102
0.284097
0.284097
0.283972
0.281496
0.281339
0.278568
0.283598
0.279361
0.283678
0.284102
0.284102
0.284102
0.281857
0.284102
0.284102
0.284102
0.284102
0.281882
0.284102
0.284102
0.284102
0.284102
0.284102
0.284102
0.284102
0.284102
0.284102
0.284102
0.284096
0
0.284102
0.283933
0.284102
0.280626
0.281927
0.283403
0.280313
0.282414
0.284102
0.284097
0.284102
0.284102
0.284102
0.284102
0.284102
0.2841
0.284102
0.284102
0.284102
0.284102
0
0
0.284102
0.284102
0.283985
0.283862
0.284102
0.284102
0.282558
0.284102
0.2778
0.284102
0.284102
0.284102
0
0
0
0
0.2841
0.284102
0.284061
0.284076
0.284102
0.282596
0.282262
0.280845
0.284102
0.283502
0.281145
0.284102
0.282678
0.284102
0.284102
0.284102
0.284102
0.284102
0.284102
0
0
0
0.284074
0.284102
0.284102
0.284102
0.284102
0.282476
0.279988
0.279001
0.284102
0.284102
0.284102
0.284068
0.284102
0.282032
0.284102
0.284102
0.284102
0.284102
0.284086
0.284102
0.284102
0.284091
0
0
0.284102
0.283945
0.283952
0.284091
0.284093
0.278016
0.284102
0.279058
0.279375
0.282022
0.283243
0.284102
0.284102
0.284102
0.284084
0.284102
0.284102
0.284102
0.2841
0
0.284059
0.283964
0.2841
0.280961
0.280396
0.284102
0.284102
0.28159
0.28141
0.283939
0.284102
0.284102
0.284102
0.284102
0
0
0.284102
0.284102
0.284102
0.28399
0.284102
0.284102
0.28056
0.284058
0.281318
0.284035
0.281946
0.284102
0.284102
0.284102
0.281604
0.284102
0.284102
0.284102
0.284102
0.284102
0.284102
0.284102
0.284102
0
0.284102
0.283765
0.283911
0.283926
0.284102
0.284102
0.283964
0.284102
0.28377
0.284102
0.280405
0.280897
0.283411
0.284102
0.284102
0.284097
0.284102
0
0.284102
0.284092
0.28405
0.283844
0.284071
0.284098
0.284097
0.284091
0.284102
0.284054
0.28403
0.284102
0.284102
0.284102
0.284102
0.280333
0.284102
0.283733
0.284102
0.284102
0.284102
0.284102
0.284102
0
0
0
0.284102
0.284102
0.283798
0.28409
0.284102
0.279643
0.283399
0.284087
0.28267
0.284102
0.284102
0.284102
0.284102
0.284102
0.284102
0.284102
0
0
0
0.284098
0.283886
0.284102
0.280267
0.284102
0.284102
0.278765
0.284096
0.282868
0.284098
0.280219
0.279105
0.282643
0.283579
0.282353
0.284102
0.284097
0.284102
0.284102
0.284102
0.284102
0.284102
0
0.283899
0.283922
0.284102
0.2841
0.284102
0.281237
0.284102
0.284102
0.280318
0.284102
0.284102
0.282585
0.284102
0.284102
0.284102
0.284102
0.284102
0.284102
0.284102
0.284102
0.284092
0
0
0.284102
0.284102
0.284096
0.284013
0.284102
0.283919
0.284102
0.283991
0.282041
0.284096
0.284102
0.282538
0.280842
0.284102
0.284102
0.284102
0.284098
0.284102
0.284097
0.284102
0.284088
0.284102
0.284072
0.284102
0.284102
0.27855
0.278316
0.284102
0.280875
0.281156
0.284102
0.284102
0.282256
0.282228
0.284102
0.284102
0.284102
0.284102
0.284102
0
0
0.284102
0.28369
0.284102
0.284102
0.284102
0.278104
0.284102
0.284102
0.279696
0.284102
0.284093
0.278922
0.284094
0.28408
0.284102
0.283883
0.284093
0.284102
0.284102
0
0
0.284101
0.284095
0.282746
0.284053
0.284093
0.284053
0.28072
0.279225
0.277611
0.283402
0.284043
0.279274
0.284102
0.282273
0.284102
0.284098
0.284102
0
0
0.284091
0.284102
0.284061
0.284102
0.281759
0.283587
0.284102
0.284102
0.284102
0.282335
0.283533
0.284102
0.284102
0.281884
0.281414
0.28328
0.284102
0.284102
0.284097
0.284102
0.284102
0.284102
0.284102
0.275561
0.2841
0.284053
0.28409
0.278676
0.279995
0.277388
0.284102
0.284102
0.284102
0.284102
0.284102
0.282891
0.284102
0.284102
0.284102
0.284102
0.284102
0.284102
0.284102
0
0
0
0.284102
0.284097
0.277744
0.284008
0.284102
0.277103
0.278067
0.281041
0.284102
0.283998
0.284102
0.2841
0.284102
0.284102
0.284101
0
0.284102
0.284102
0.284081
0.284102
0.284102
0.281304
0.278338
0.27841
0.278237
0.27827
0.280933
0.280629
0.27884
0.279283
0.279592
0.284016
0.284085
0.283618
0.284102
0.283678
0.284102
0.284102
0.284102
0.284102
0.284102
0.284102
0.284102
0.284102
0.284102
0.2841
0.284097
0.284102
0
0.284102
0.284083
0.284092
0.284099
0.284102
0.284102
0.284094
0.284102
0.284101
0.283572
0.280159
0.278166
0.283854
0.284102
0.282775
0.282896
0.284102
0.284102
0.284102
0.283399
0.284102
0.284102
0.284102
0
0.284102
0.284102
0.28089
0.284102
0.278357
0.282374
0.284102
0.284102
0.282709
0.282127
0.284088
0.284102
0.284102
0.284102
0.284102
0
0.284102
0.284098
0.284093
0.283864
0.28402
0.284102
0.284102
0.284101
0.277541
0.279423
0.282334
0.284102
0.284102
0.284102
0.2832
0.280995
0.280854
0.284102
0.284102
0.284102
0.284102
0.284102
0.284102
0.284102
0.284102
0.284102
0.284102
0.284102
0
0.284039
0.283828
0.284066
0.283941
0.284097
0.284102
0.284102
0.279772
0.283895
0.284102
0.284102
0.284102
0.284102
0.284102
0
0.284102
0.284096
0.284102
0.283491
0.28385
0.284102
0.284091
0.283954
0.279561
0.277672
0.281123
0.284099
0.284101
0.284102
0.284102
0.284102
0.284102
0.284102
0.284102
0.284102
0.284102
0.284102
0.284102
0.284102
0.284101
0.284034
0.284102
0.284098
0.280681
0.284102
0.279711
0.27891
0.280415
0.281755
0.283567
0.282805
0.284102
0.284102
0.284102
0.284102
0.284102
0.284102
0
0
0.284102
0.284102
0.284102
0.284102
0.284102
0.284102
0.277912
0.284102
0.283037
0.283897
0.284102
0.283873
0.277475
0.282343
0.284102
0.284102
0.284102
0.279189
0.284057
0.284102
0.283677
0.281705
0.284102
0.284102
0.283296
0.283816
0.284102
0.284088
0
0.284102
0.284102
0.284102
0.277772
0.278284
0.280426
0.284102
0.279101
0.282512
0.284102
0.284102
0.284102
0.283716
0.284102
0.282072
0.284102
0.284102
0.284093
0.284102
0.284096
0.284102
0.284102
0
0.284102
0.284102
0.284102
0.284102
0.284102
0.284097
0.284074
0.279878
0.27703
0.284102
0.284102
0.281089
0.280716
0.284102
0.284102
0.283489
0.284102
0.284102
0.284102
0.284102
0.284102
0.284102
0.284102
0
0
0.282272
0.284102
0.284102
0.284102
0.279292
0.280496
0.278748
0.282237
0.284102
0.278026
0.282718
0.280918
0.280376
0.28068
0.283072
0.284102
0.284102
0.284102
0.284102
0.284102
0.284102
0.284102
0.284102
0.284102
0.284102
0.2839
0.281094
0.284017
0.282957
0.284102
0.276537
0.283195
0.284102
0.284102
0.284102
0.284102
0.279524
0.281703
0.278399
0.283544
0.284102
0.28356
0.282159
0.284102
0.284102
0.284102
0
0
0
0.281067
0.284094
0.281715
0.280641
0.281497
0.280124
0.280652
0.284102
0.282763
0.284102
0.284102
0.284102
0.284029
0.284102
0.284102
0.284097
0.284102
0.284102
0.284097
0.283737
0.284102
0.276669
0.281255
0.284102
0.282874
0.279436
0.279433
0.284102
0.284102
0.284102
0.284102
0.284102
0.284102
0.284097
0.284102
0.284049
0.28409
0.284094
0.281399
0.284006
0.284102
0.284102
0.276907
0.284101
0.284102
0.280105
0.28261
0.284102
0.284102
0.284102
0.284102
0
0.284097
0.284063
0.283894
0.284076
0.279351
0.280149
0.284102
0.277542
0.280218
0.284102
0.283083
0.278189
0.279207
0.284102
0.282683
0.284099
0.284057
0.284102
0.284102
0.284102
0.284102
0.284102
0.277867
0.284102
0.27668
0.277428
0.284102
0.284102
0.280198
0.284102
0.284102
0.283592
0.281792
0.284102
0.284102
0.284102
0.284102
0.284102
0.284102
0.284102
0
0.278548
0.284102
0.284102
0.284102
0.281728
0.284102
0.284102
0.281095
0.284055
0.284102
0.282677
0.284102
0.280489
0.28317
0.284102
0.281179
0.281696
0.282347
0.283123
0.283459
0.284102
0.284102
0.284102
0.284102
0
0.284102
0.284102
0.284102
0.284102
0.284102
0.281309
0.284099
0.281837
0.280656
0.278272
0.279173
0.281636
0.280151
0.278684
0.279739
0.282245
0.284102
0.284102
0.284102
0.284102
0.284039
0.279521
0.280119
0.284102
0.284102
0.277742
0.279084
0.284102
0.277877
0.278507
0.28
0.279821
0.279848
0.281487
0.284102
0.284102
0.280743
0.283908
0.284102
0.284102
0.284102
0.284102
0.284102
0.284102
0.283009
0.277729
0.283713
0.284102
0.284102
0.280675
0.284102
0.278067
0.284072
0.279985
0.280888
0
0
0
0.284102
0.284102
0.284041
0.276078
0.276928
0.282774
0.277432
0.27926
0.278497
0.278704
0.284102
0.283158
0.284102
0.284102
0.284102
0.284102
0.284102
0.284102
0.284102
0.284102
0.284093
0.2841
0.284102
0.284102
0.283137
0.284102
0.284102
0.280447
0.284102
0.284102
0.282079
0.284102
0.28338
0.278499
0.278977
0.284102
0.284102
0.284102
0.284102
0.284102
0.284102
0
0.284102
0.280102
0.284102
0.284102
0.284094
0.284102
0.284102
0.284102
0.284102
0.283094
0.278668
0.278391
0.280443
0.284102
0.279
0.280188
0.280274
0.284102
0.280978
0.284102
0.284102
0.284102
0
0.284102
0.284102
0.284055
0.28408
0.276714
0.282044
0.275731
0.284101
0.284102
0.284102
0.284102
0.279984
0.278975
0.282534
0.279847
0.281942
0.284102
0.281324
0.282157
0.284102
0.284102
0.284102
0.284102
0.284102
0
0
0.284102
0.284086
0.284075
0.284102
0.284102
0.283912
0.281353
0.284102
0.278845
0.279678
0.280827
0.278635
0.281361
0.279002
0.279795
0.28015
0.280493
0.284102
0.284102
0.284102
0.284102
0.284102
0.284102
0.284102
0.284102
0.278502
0.279986
0.284095
0.284102
0.284102
0.284099
0.281828
0.282779
0.279567
0.28049
0.284102
0.284102
0.284102
0
0.284102
0.284102
0.284092
0.284102
0.284101
0.284074
0.279379
0.28389
0.277449
0.27719
0.281935
0.283208
0.277529
0.280284
0.278606
0.280566
0.280826
0.279235
0.284102
0.284101
0.281998
0.283346
0.284102
0.281515
0.284102
0.284102
0.284102
0
0.284102
0.284102
0.284102
0.284102
0.276448
0.283483
0.284102
0.280131
0.284102
0.284102
0.276387
0.284096
0.284102
0.277036
0.279062
0.284102
0.284102
0.2841
0.282852
0.284102
0.283129
0.284102
0
0
0
0
0.284102
0.284102
0.283928
0.283874
0.2841
0.283832
0.278875
0.278671
0.277634
0.278998
0.282496
0.284102
0.284102
0.284102
0.284102
0.284102
0.284102
0.284102
0.284102
0.281764
0.284102
0.284101
0.279761
0.284102
0.277438
0.284102
0.278223
0.279989
0.284102
0.281508
0.282146
0.284102
0.284102
0.284102
0
0
0.283754
0.284102
0.284102
0.284098
0.284064
0.284102
0.281657
0.284086
0.275923
0.284102
0.284102
0.284102
0.276866
0.2775
0.2841
0.284102
0.279131
0.284102
0.279111
0.284102
0.284102
0.284102
0.282338
0.281703
0.280449
0.28396
0.284102
0.284102
0.284102
0.284102
0
0
0.284102
0.284102
0.284102
0.284102
0.284088
0.284102
0.281629
0.284102
0.278448
0.284065
0.282698
0.282545
0.277689
0.278284
0.278461
0.278508
0.279692
0.279833
0.282261
0.284102
0.284102
0
0.284102
0.284102
0.284102
0.284102
0.284102
0.284098
0.284102
0.275797
0.279122
0.283063
0.279955
0.280415
0.278487
0.280381
0.280901
0.284102
0.282659
0.284102
0.284102
0.284102
0
0
0.283581
0.283619
0.283305
0.282602
0.276643
0.281188
0.277081
0.278231
0.280855
0.277789
0.278749
0.279066
0.279637
0.281168
0.280356
0.281395
0.284102
0.284102
0.284102
0.283735
0.284102
0.284102
0.284102
0.284102
0.284102
0.284102
0.284102
0.284083
0.284101
0.284102
0.279836
0.284102
0.28017
0.278013
0.279118
0.279702
0.284102
0.284102
0.283219
0.283151
0.284102
0.284051
0.284101
0.284062
0.284027
0.284066
0.2796
0.280552
0.284102
0.28073
0.284101
0.282589
0.282338
0.278878
0.284102
0.284102
0.277526
0.278042
0.27896
0.278521
0.279394
0.284102
0.284102
0
0.284102
0.284102
0.275894
0.280027
0.284102
0.283338
0.279285
0.277647
0.278243
0.284068
0.27905
0.284102
0.284102
0.279437
0.281066
0.284102
0.284102
0.284102
0
0.284102
0.284102
0.281877
0.284101
0.284102
0.284102
0.278822
0.284102
0.284102
0.284102
0.277635
0.280465
0.280092
0.27959
0.282632
0.284102
0.283821
0.284102
0.284102
0.284102
0.284091
0.284102
0.284102
0.283816
0.284102
0.284102
0.279504
0.277349
0.280873
0.279729
0.279967
0.284102
0.28068
0.284102
0.284102
0.282367
0.284102
0.284102
0.284102
0.284087
0.27877
0.281994
0.284102
0.284102
0.28338
0.284072
0.284102
0.278316
0.281304
0.284102
0.278729
0.280991
0.284102
0.279512