/*--------------------------------*- C++ -*----------------------------------*\
| =========                 |                                                 |
| \\      /  F ield         | OpenFOAM: The Open Source CFD Toolbox           |
|  \\    /   O peration     | Version:  v1906                                 |
|   \\  /    A nd           | Web:      www.OpenFOAM.com                      |
|    \\/     M anipulation  |                                                 |
\*---------------------------------------------------------------------------*/
FoamFile
{
    version     2.0;
    format      ascii;
    class       scalarField;
    location    "2.83/lagrangian/coalCloud1";
    object      Ygas;
}
// * * * * * * * * * * * * * * * * * * * * * * * * * * * * * * * * * * * * * //


53638
(
4.9512e-13
4.44844e-13
1.47824e-15
5.63175e-22
9.91976e-20
1.58427e-13
2.80314e-22
2.27299e-13
3.69465e-14
3.33346e-20
1.16651e-20
3.33538e-14
2.13516e-13
7.16784e-13
1.60316e-15
3.12608e-21
1.0054e-20
5.14521e-14
9.94272e-21
8.89681e-14
1.29878e-14
5.08634e-13
1.52942e-13
5.9161e-14
6.28605e-14
7.31301e-14
4.34015e-13
7.14069e-14
1.32528e-22
4.23632e-20
1.23829e-13
3.82508e-17
8.71204e-22
4.85427e-22
1.5045e-14
3.15949e-13
2.17846e-14
1.06111e-21
3.12653e-13
1.07096e-20
1.40441e-13
9.69145e-14
1.53014e-13
4.61072e-20
2.96847e-13
1.86542e-12
2.04614e-18
4.42276e-13
3.63e-23
3.56271e-13
1.50755e-14
7.48399e-20
3.26841e-20
1.75578e-15
1.48523e-13
3.06454e-14
1.95631e-13
6.47599e-12
2.03929e-13
2.71581e-14
4.83471e-23
3.84718e-13
8.94883e-20
2.97742e-24
1.58517e-21
9.77234e-18
2.67335e-13
1.17291e-13
2.19156e-18
1.92523e-19
2.54918e-23
3.08981e-13
2.43277e-17
1.21227e-12
1.47751e-14
8.29737e-14
8.49174e-21
3.76712e-13
5.99057e-13
4.32074e-22
1.91182e-22
1.28434e-15
3.74644e-22
6.65453e-14
2.23336e-22
9.30178e-22
3.99457e-16
1.19032e-21
1.06768e-17
3.13718e-13
6.56013e-22
3.49303e-15
1.0761e-13
3.01603e-23
1.29662e-13
1.66728e-24
8.84344e-24
8.08658e-24
1.31868e-13
1.86311e-13
6.27403e-24
2.1795e-21
3.13136e-13
5.86921e-22
9.66139e-23
9.47858e-23
6.20161e-14
7.53481e-14
2.37137e-22
5.53868e-20
3.00691e-22
1.98608e-20
2.61891e-20
1.30723e-13
8.28014e-24
3.56603e-24
3.03186e-14
9.78143e-15
8.73199e-14
5.09905e-22
1.66099e-13
5.1828e-13
1.68158e-20
9.55037e-25
2.21006e-13
4.69589e-13
6.12863e-25
2.18156e-13
4.35382e-23
5.33113e-23
1.59795e-23
2.65699e-13
6.23134e-21
9.34399e-23
2.48377e-14
5.00937e-18
1.05256e-17
4.28402e-14
5.0868e-14
3.95666e-13
3.17228e-21
5.12383e-13
2.40502e-13
1.51504e-19
1.75382e-21
5.41931e-21
7.38577e-19
6.04134e-14
1.17615e-16
3.66499e-21
1.99443e-13
1.64137e-13
4.04745e-13
6.5069e-18
4.09326e-14
3.64021e-22
7.84556e-14
1.40474e-21
9.44657e-25
1.10014e-22
4.05787e-18
1.91041e-21
4.38108e-22
3.22722e-21
5.80161e-14
1.11025e-13
1.68294e-18
1.22409e-15
1.44343e-13
1.0024e-16
4.16317e-13
1.33966e-22
3.78209e-18
3.47913e-23
3.76701e-13
6.60351e-17
1.53385e-13
2.86051e-13
7.73451e-22
7.65432e-24
3.49483e-13
1.16954e-22
3.19615e-15
2.02314e-13
4.58235e-22
8.11009e-14
7.05381e-14
2.64621e-21
7.724e-22
4.8921e-15
2.39252e-21
3.61213e-22
8.11626e-14
1.80098e-13
1.62796e-13
4.54857e-13
1.68055e-13
2.01576e-20
1.44054e-21
1.32651e-25
2.96026e-14
5.5401e-16
1.32053e-13
2.91001e-18
2.09726e-22
1.52606e-18
1.44246e-20
3.79563e-15
3.17502e-22
3.77275e-13
3.40941e-22
8.09703e-22
1.89353e-16
7.00545e-15
1.28588e-21
1.24645e-20
1.23769e-13
1.07527e-21
2.3643e-14
1.65745e-13
2.46277e-13
3.39123e-13
4.81842e-14
1.31649e-13
3.09516e-21
3.10795e-13
1.41084e-23
5.39977e-22
7.77289e-18
6.49149e-14
1.08412e-22
2.91089e-21
1.71354e-13
1.50073e-18
9.17755e-22
3.48349e-13
2.10543e-16
3.06616e-13
9.09129e-19
7.81926e-23
2.28433e-17
8.49649e-23
2.82263e-14
6.29002e-17
1.78754e-13
2.32862e-25
1.02291e-19
9.34159e-22
3.78527e-13
2.9273e-13
2.65595e-13
5.53357e-13
1.00911e-13
5.16053e-14
5.2871e-19
7.33144e-24
2.01626e-19
3.07362e-13
3.89772e-21
1.64048e-14
1.26472e-21
1.59154e-14
8.84322e-22
5.18325e-14
9.55427e-22
8.82049e-13
5.11624e-22
1.16134e-13
6.24362e-15
1.38255e-21
2.90698e-13
1.90123e-22
3.53754e-13
6.44126e-14
1.39084e-21
1.04257e-22
1.47713e-13
2.6213e-13
2.22398e-17
9.52944e-19
1.40071e-25
1.17333e-22
1.13525e-19
3.50286e-16
1.57713e-14
2.03362e-13
1.58528e-16
4.39486e-13
1.2012e-18
9.02039e-24
6.56851e-17
2.69655e-13
8.91876e-23
2.9621e-16
4.68598e-20
5.79004e-14
1.39034e-13
1.39704e-22
5.88794e-14
4.96424e-19
4.87548e-18
2.56941e-14
3.9739e-20
1.84731e-13
6.17219e-14
1.02589e-17
1.71083e-20
1.18696e-13
1.52813e-13
6.05107e-12
9.33971e-19
3.4443e-13
2.21063e-21
1.67496e-20
3.8049e-20
1.39728e-13
6.80974e-14
5.63864e-14
2.58182e-13
1.60331e-13
1.1889e-21
1.49239e-13
6.57681e-18
7.49426e-21
1.32943e-22
3.09511e-13
6.45625e-16
8.48467e-22
1.28219e-13
1.16822e-13
4.22374e-20
1.69771e-13
1.32697e-13
6.75898e-22
1.51891e-13
1.64064e-19
2.2725e-21
2.06235e-18
4.11905e-13
1.36336e-17
1.47821e-17
2.55945e-13
9.02082e-21
4.30175e-14
1.20276e-19
2.25011e-19
2.33798e-19
1.09539e-13
5.24134e-24
3.08515e-13
1.4197e-13
5.03055e-13
3.40238e-14
2.28723e-13
8.89685e-14
2.55076e-23
1.56025e-21
7.19607e-14
1.14039e-13
5.328e-22
1.94215e-22
5.23855e-24
2.72541e-17
1.19226e-25
1.09838e-15
7.80434e-18
1.94074e-17
2.36819e-13
1.0762e-14
2.04532e-23
2.01516e-13
3.67575e-22
3.56392e-19
1.90871e-13
3.33634e-23
4.77477e-14
1.60088e-20
1.70892e-13
1.42872e-13
8.02313e-14
2.89376e-22
9.98542e-15
1.89985e-13
5.83731e-22
2.33424e-13
1.20728e-13
3.87161e-15
1.04932e-16
8.85026e-21
4.28026e-13
6.10326e-19
5.77065e-15
9.36623e-23
5.2693e-14
1.84168e-13
7.29064e-21
6.05438e-22
3.77281e-24
1.02983e-20
4.81766e-14
1.87562e-23
9.14144e-24
5.17829e-14
1.07202e-13
4.67158e-14
1.98879e-19
3.45875e-13
4.93986e-18
2.35849e-21
6.46734e-22
2.53139e-14
5.84189e-20
1.31816e-13
2.77375e-13
9.45108e-18
4.21618e-21
1.71507e-21
2.46908e-22
1.82948e-17
2.03436e-17
5.66018e-21
5.35204e-23
4.14323e-20
5.10547e-22
7.05831e-13
4.94267e-13
4.18791e-14
4.96943e-13
4.2683e-25
2.0404e-23
3.04597e-18
2.93223e-22
3.43311e-25
1.49304e-13
4.02117e-16
3.11678e-21
2.53291e-13
3.01946e-17
5.0457e-24
4.39638e-22
9.42822e-19
3.78362e-13
1.8987e-14
2.67434e-13
5.2117e-14
4.9501e-20
1.05116e-22
8.47593e-14
1.47705e-13
6.94544e-14
1.5825e-14
5.11333e-13
7.44555e-22
5.30793e-21
5.26377e-15
2.35273e-13
1.93803e-20
2.87051e-13
2.78959e-18
3.91479e-13
8.05296e-22
6.65669e-27
6.03818e-19
4.27531e-13
1.10896e-18
7.97373e-21
1.94964e-13
5.5933e-13
4.71836e-13
3.76293e-17
4.16012e-23
9.69105e-22
2.73665e-14
5.87688e-20
1.26335e-19
3.5733e-22
1.78251e-14
3.995e-22
7.866e-14
3.97177e-15
1.60954e-22
2.68224e-22
5.54915e-13
5.13435e-17
1.49874e-13
8.79211e-21
2.41127e-13
7.20768e-21
1.74294e-18
6.35132e-17
9.90641e-20
9.33129e-13
2.08579e-13
1.20651e-13
7.44885e-14
3.6221e-22
6.65599e-18
7.92799e-13
1.10511e-21
2.39361e-13
6.40579e-17
1.66481e-13
7.00816e-23
7.48631e-17
5.04288e-13
1.2421e-15
7.60674e-23
3.62415e-13
2.84968e-13
5.5713e-21
2.26521e-16
2.08088e-13
1.31779e-13
1.64863e-18
1.71581e-13
5.03228e-14
1.20829e-25
2.03176e-15
5.35746e-14
4.82498e-13
9.48845e-15
5.03616e-13
2.74612e-13
9.89721e-14
1.2407e-13
2.36366e-14
2.20202e-12
1.70103e-13
3.74729e-13
1.64278e-20
1.59648e-19
7.52489e-17
9.0382e-14
5.84016e-13
8.82204e-14
2.23159e-13
1.08166e-13
1.24226e-13
6.45468e-16
5.5897e-14
3.67484e-18
4.54973e-13
2.37433e-13
4.99042e-13
1.30513e-20
5.96921e-27
1.05155e-15
9.70517e-14
2.79635e-13
6.95729e-15
4.7775e-15
3.46022e-13
8.01145e-13
3.36735e-14
6.45387e-23
7.26914e-22
1.75488e-14
2.67869e-13
3.08399e-13
9.16541e-24
2.44087e-21
1.06634e-20
1.3836e-14
4.67264e-14
4.10918e-14
4.62115e-16
2.88996e-13
2.8967e-19
1.5438e-13
4.62038e-13
3.23102e-13
1.79412e-13
1.12571e-13
4.45437e-23
7.77726e-22
1.49826e-13
1.29692e-13
2.83471e-13
1.78608e-17
3.28595e-22
1.33557e-19
1.6583e-13
1.79187e-21
5.49898e-13
3.79004e-21
3.33411e-21
5.75886e-14
6.67507e-21
1.51689e-18
7.08726e-13
7.58764e-21
7.60644e-20
8.89837e-25
9.58547e-22
4.07788e-13
3.38717e-12
1.80018e-16
1.52952e-19
3.57527e-14
5.79519e-13
1.11737e-24
7.96572e-14
2.81329e-17
2.63856e-14
3.55699e-13
1.11008e-13
6.0009e-23
7.1942e-20
1.60772e-12
7.02144e-14
1.50586e-13
2.58831e-13
4.93804e-14
6.65213e-21
3.4441e-19
8.8015e-17
4.09789e-21
4.91415e-13
1.34708e-18
1.28203e-20
2.97875e-19
5.59137e-13
1.6457e-18
1.74863e-13
5.09939e-13
1.44127e-12
1.2997e-24
3.0318e-21
2.96235e-25
9.11005e-13
1.48698e-22
1.67446e-13
3.22399e-13
3.30345e-13
3.37805e-20
3.13869e-13
1.31692e-13
1.69e-18
6.56335e-18
1.02314e-13
1.57847e-13
5.92441e-20
1.16772e-13
1.393e-23
4.36798e-24
8.92283e-14
1.69023e-13
1.6716e-13
3.84175e-13
8.59485e-14
1.75938e-23
1.0174e-13
1.35069e-20
1.09709e-17
1.23221e-13
2.1351e-21
4.59999e-21
2.0952e-13
4.35076e-21
1.05503e-23
2.26311e-23
6.66061e-22
1.2385e-23
1.53916e-22
1.623e-19
1.36891e-19
1.15839e-25
2.96424e-13
3.98136e-19
7.23724e-14
1.25474e-21
7.71132e-15
3.69835e-19
2.11998e-13
6.83136e-14
3.8661e-22
1.89767e-13
1.45166e-13
1.16853e-15
1.41878e-13
9.43723e-20
3.22932e-15
2.61789e-21
1.67951e-14
1.24771e-13
3.36142e-13
1.12277e-13
1.70574e-13
7.44234e-25
4.05015e-14
1.40409e-13
4.14684e-13
9.99911e-17
1.22155e-12
9.93152e-24
3.48098e-13
5.79972e-13
2.96837e-13
2.98332e-13
2.03564e-16
2.14414e-14
1.5771e-13
8.97688e-19
3.57107e-23
5.55814e-14
1.29576e-24
3.32135e-19
3.68184e-14
7.34558e-20
1.16933e-13
1.69142e-19
1.13433e-21
1.62239e-21
7.47482e-18
2.33161e-16
2.74373e-20
8.0347e-19
2.09183e-20
4.17589e-17
3.15496e-23
1.04491e-14
1.75582e-18
4.6497e-14
8.20247e-17
7.00015e-21
1.5043e-13
1.09874e-14
9.76612e-14
1.87141e-17
7.85873e-21
2.12678e-15
1.78351e-13
1.26196e-20
5.36273e-14
9.51857e-14
1.51458e-18
3.42543e-14
5.25176e-14
7.12736e-15
3.94237e-20
4.74081e-21
1.57074e-13
6.04727e-14
6.32211e-14
2.30559e-22
7.27733e-22
4.06025e-23
1.96102e-13
1.6849e-19
1.08611e-19
8.00042e-22
6.19082e-21
2.71721e-13
3.54384e-13
4.01905e-22
3.15469e-21
5.30614e-23
2.37748e-13
9.66219e-14
1.60484e-20
7.41095e-19
2.50652e-14
3.85463e-22
5.91278e-20
1.5219e-18
3.37944e-17
6.26422e-14
2.75934e-13
5.32525e-14
2.68349e-13
1.01078e-13
5.9388e-21
3.80892e-23
2.15061e-16
6.69033e-22
1.25699e-17
1.77898e-16
1.95063e-16
3.26792e-13
4.68217e-15
3.86191e-13
6.06173e-14
9.09987e-14
1.60092e-23
5.27048e-22
1.7221e-13
5.66861e-25
3.69012e-20
2.5079e-20
2.53963e-14
9.89182e-14
9.41101e-22
8.94937e-14
1.03339e-14
1.91457e-19
1.19172e-15
8.1147e-14
1.04916e-20
1.32225e-13
8.63085e-23
3.58763e-16
4.49702e-14
6.22661e-13
2.18141e-14
2.87715e-13
1.86828e-14
4.3906e-23
3.73596e-25
7.58255e-15
5.74796e-25
1.30033e-20
2.40543e-19
3.09892e-13
9.64006e-22
2.93464e-14
2.86719e-13
4.2904e-14
2.44456e-13
2.88666e-14
3.5481e-13
2.39686e-13
6.55512e-22
2.32515e-13
2.9281e-14
1.22251e-13
1.01531e-19
4.93791e-22
2.91018e-13
5.97718e-20
4.32076e-13
1.43216e-13
4.54292e-13
7.00728e-17
1.51581e-13
2.5599e-22
3.36157e-13
4.8721e-13
5.18858e-14
3.50174e-20
3.94368e-16
2.43292e-19
3.19657e-16
1.79977e-21
2.52059e-24
3.03215e-13
2.98819e-18
4.97634e-21
2.78823e-14
8.59932e-23
1.17433e-19
1.73998e-13
1.4003e-13
4.02522e-20
1.71712e-13
4.21851e-13
2.94006e-14
2.04417e-13
4.08257e-16
5.68252e-13
1.87801e-14
2.33417e-13
6.74467e-21
2.02505e-13
1.58726e-14
2.00273e-13
5.2893e-21
3.84853e-14
5.46239e-14
1.94736e-13
4.55021e-21
3.86936e-13
2.07733e-13
7.45567e-14
1.70328e-13
5.40139e-20
6.12751e-15
3.94258e-13
1.31854e-13
1.17653e-13
1.62821e-13
8.01954e-19
7.01529e-14
9.4025e-22
7.91347e-14
3.73385e-19
1.22581e-13
4.79051e-14
2.3141e-17
5.76187e-15
3.95193e-13
4.83574e-23
3.19562e-24
1.92736e-22
2.73646e-13
4.40486e-13
7.7089e-14
1.82132e-15
3.58138e-13
1.27863e-21
3.07965e-20
1.51629e-14
8.62683e-22
4.71233e-16
5.73142e-13
5.45e-17
3.57948e-25
9.8088e-14
3.58994e-16
1.50965e-15
2.6308e-19
1.42606e-13
3.87032e-14
7.95262e-22
1.4144e-13
4.92004e-22
1.99885e-13
7.02411e-17
7.0396e-15
4.04735e-13
5.02209e-24
1.07881e-13
1.72414e-23
9.12333e-23
2.13382e-13
1.00945e-13
4.68627e-13
4.12487e-23
1.66833e-13
3.48995e-13
1.05755e-19
2.11285e-13
9.22829e-13
1.64933e-18
2.55542e-14
1.29052e-14
8.60139e-14
3.41959e-13
2.37032e-20
9.89571e-24
3.5552e-22
1.42333e-13
4.88676e-18
1.26891e-13
1.45633e-13
1.00075e-17
9.15711e-21
2.3516e-13
8.11388e-21
1.05877e-19
1.72903e-13
2.14791e-23
2.29759e-16
2.1611e-13
9.70378e-17
2.24447e-13
3.81134e-13
1.96189e-21
3.33767e-23
3.41253e-19
3.14743e-13
2.06163e-22
2.57439e-13
2.39073e-23
1.86985e-13
1.31487e-13
1.08613e-13
3.09793e-15
9.30624e-23
1.56812e-13
2.34563e-14
1.16262e-17
1.15662e-13
6.82022e-22
2.34822e-19
6.81098e-14
3.97894e-18
2.12454e-13
1.02509e-13
1.29905e-13
2.19874e-13
5.10149e-23
4.5044e-14
2.71726e-13
6.57115e-19
2.21561e-19
1.67833e-13
1.15608e-13
2.76234e-13
6.01183e-26
9.79441e-19
2.98117e-21
2.55601e-17
7.65209e-20
3.67664e-13
4.97201e-13
1.24313e-17
1.20146e-19
7.87203e-14
2.30533e-22
3.33905e-22
6.13697e-19
0.825397
4.83015e-23
6.02731e-24
1.9502e-13
1.77093e-13
8.46977e-14
1.24328e-20
0.824785
2.26674e-19
7.1345e-15
2.9961e-21
8.30186e-21
0.825309
2.58777e-14
0.824215
2.6062e-13
8.19779e-22
0.825397
0.825397
7.13098e-23
0.825397
0.825397
0.825397
0.824699
0.825397
0.815654
0.825332
1.39711e-20
3.62324e-13
0.825397
0.817138
0.825397
0.825397
0.825397
0.825397
0.825397
0.825397
2.30858e-13
3.44371e-15
4.25138e-14
0.825397
0.825397
0.825397
0.825397
0.825397
0.823624
0.825397
0.825397
0.814709
0.820525
0.825268
2.2314e-14
8.39962e-17
0.82059
0.81975
0.825397
0.825397
0.825397
1.20055e-13
0.813374
0.825397
0.825397
0.825397
1.0518e-13
0.818543
0.825397
0.825393
0.825397
0.824716
2.26543e-15
2.18869e-13
3.96574e-14
9.9311e-14
0.825356
0.825397
0.825397
0.819124
0.825397
0.825397
5.64409e-14
5.81239e-13
0.825397
0.82232
0.825397
0.825397
0.825381
0.825397
0.804549
0.822793
0.825397
0.825348
0.825397
0.825397
0.803759
0.825397
0.802275
0.80357
0.81854
0.825365
0.825397
5.61096e-14
3.66868e-14
0.803632
0.808698
0.818007
0.825397
0.825397
0.813125
0.82264
0.825048
0.803874
0.804211
0.82536
1.74015e-13
0.825397
0.825397
0.825397
0.825397
0.825397
0.825397
0.806334
0.824934
0.825397
5.65207e-13
1.30707e-21
1.00498e-22
0.825397
0.825397
0.811977
0.825397
0.806198
0.825346
0.817148
0.825397
0.820882
0.823257
0.825397
0.825397
0.825397
0.825397
0.825397
0.825397
0.825397
0.825397
0.825397
0.822651
0.803956
0.825397
0.825397
0.825397
0.825397
0.82539
0.817813
0.811157
0.824476
0.825397
0.800751
0.817853
0.825397
0.80515
0.825395
0.817354
0.810902
0.810326
0.809411
0.811023
2.22713e-22
0.818814
0.82236
0.812201
0.803303
0.806548
0.825397
0.812525
0.821571
0.807928
0.814961
0.825397
0.825397
0.806268
0.825397
0.821949
0.825397
0.825392
0.799461
0.825397
0.80845
0.825397
0.825397
0.825316
0.809139
0.825397
0.815328
0.814596
1.0933e-13
0.825397
0.825397
0.825397
0.815959
0.80908
0.811502
0.825397
0.81095
0.825397
0.825397
0.82521
0.825397
0.805011
0.824665
0.811833
0.825397
0.825397
0.810039
0.817076
0.825397
0.825397
1.59132e-20
0.825397
0.805216
0.825397
0.825397
0.825386
0.807563
0.819838
0.825397
0.80511
0.802177
0.816939
0.804498
0.804916
0.805665
0.808313
0.825397
0.814067
0.814184
0.825397
1.23049e-13
0.812961
0.809723
0.818998
0.814141
0.814699
0.825172
0.822337
0.825397
0.805282
0.821154
0.825397
0.806634
0.813433
0.814873
0.812117
0.817292
0.825397
0.825397
0.825359
0.813045
0.815088
0.825397
0.824934
0.815612
0.825001
0.803174
0.801353
0.825397
0.803153
0.804127
0.808031
0.804835
0.825397
0.809161
0.822221
0.817291
0.821155
0.825397
0.825397
1.49842e-13
0.820785
0.805764
0.825318
0.825397
0.80622
0.825397
0.807988
0.808
0.808277
0.817258
0.825397
4.38614e-17
8.12295e-16
0.813976
0.825397
0.825395
0.825393
0.825397
0.797789
0.825397
0.805767
0.808524
0.825397
0.809143
0.825397
0.816493
0.823482
0.825397
0.803604
0.815645
0.805194
0.813696
0.824011
0.825397
0.811649
0.811431
0.805257
0.825397
0.806018
0.825397
0.825397
0.814287
0.825397
0.811637
0.825397
0.817216
0.82084
0.825397
1.21373e-14
7.00233e-14
0.825397
0.825397
0.803553
0.820013
0.806588
0.808992
0.81908
0.803945
0.805096
0.809641
0.825379
0.805797
0.821028
0.819187
0.818444
0.814764
0.825252
0.825397
0.825397
0.825397
0.795623
0.806689
0.825397
0.825397
0.817148
0.825333
0.801775
0.824893
0.803379
0.812502
0.825397
0.825397
0.825397
8.13802e-23
0.820907
0.825397
0.825397
0.818278
0.805233
0.814444
0.80791
0.802885
0.818276
0.804844
0.810458
0.808932
0.810409
0.814736
0.806909
0.811533
0.815031
0.813578
0.811518
0.821799
0.825397
0.825397
3.91967e-25
5.88421e-13
0.825397
0.825397
0.825397
0.825397
0.825397
0.799226
0.825392
0.825397
0.825397
0.803006
0.808753
0.825397
0.807084
0.818008
0.809261
0.809601
0.81373
0.81432
0.825397
0.825397
0.825397
4.53497e-13
0.825397
0.825397
0.825397
0.819228
0.81383
0.819294
0.805376
0.806328
0.804445
0.805311
0.825397
0.808275
0.811744
0.812628
0.812514
0.810771
0.825397
0.810522
0.825397
0.825397
0.825186
0.825397
0.825397
0.825397
0.825397
0.825397
0.823229
0.809291
0.82048
0.801818
0.801987
0.802604
0.806782
0.825397
0.807238
0.813581
0.8179
0.817255
0.825397
0.81929
0.821986
0.825397
0.825397
0.825397
0.825397
2.41833e-20
9.03009e-22
4.0118e-13
0.818665
0.816761
0.825397
0.825397
0.825385
0.825397
0.801451
0.805688
0.803156
0.807586
0.808054
0.807875
0.808793
0.817445
0.825397
0.825397
0.814275
0.814034
0.824235
0.815001
0.816924
0.825397
0.817968
0.825397
0.825397
0.824976
0.825397
0.825397
0.82536
0.822934
0.821747
0.804375
0.80977
0.825396
0.808576
0.825397
0.825349
0.808937
0.809101
0.810729
0.810556
0.812065
0.812691
0.825397
1.41164e-22
0.825397
0.8
0.812249
0.804966
0.798271
0.825397
0.800375
0.802476
0.811025
0.81115
0.806878
0.825397
0.805812
0.81836
0.825396
0.806944
0.825397
0.825397
0.802198
0.806603
0.825397
0.825397
0.806984
0.803095
0.825397
0.825397
0.804617
0.811915
0.825397
0.802968
0.811727
0.820271
0.806673
0.809397
0.809857
0.825397
0.80977
0.817572
0.825397
0.825397
0.825397
0.818114
0.814119
0.80191
0.808586
0.815957
0.803131
0.805087
0.802757
0.802697
0.808738
0.810702
0.825397
0.80756
0.821622
0.810633
0.814081
0.810534
0.811347
0.818354
7.62361e-15
0.818714
0.825397
0.819819
0.824335
0.797958
0.825397
0.815409
0.804342
0.802257
0.819561
0.825397
0.805106
0.811053
0.805768
0.808979
0.805083
0.814339
0.809564
0.814277
0.825397
0.815776
0.825397
0.825397
0.81925
0.825397
0.825397
0.805878
0.816475
0.801889
0.796304
0.796708
0.825397
0.797543
0.806462
0.802884
0.802918
0.812802
0.812265
0.808376
0.810392
0.825397
0.813272
0.825391
0.825397
0.825397
4.52789e-14
0.825397
0.825386
0.806747
0.825377
0.7991
0.825397
0.807104
0.812836
0.810454
0.803507
0.803801
0.825397
0.806975
0.815451
0.808224
0.811323
0.81588
0.824238
0.825397
0.821672
9.72146e-23
0.825397
0.809383
0.825397
0.801904
0.798124
0.816705
0.819744
0.825397
0.823847
0.812923
0.816412
0.825397
0.804382
0.806421
0.813491
0.806852
0.825397
0.809353
0.810607
0.825397
0.813382
0.824155
0.825397
0.825397
0.824188
0.814831
0.810254
0.820721
0.825397
0.798691
0.807535
0.809008
0.807208
0.812329
0.815966
0.812781
0.816907
0.818745
0.825397
0.823405
0.820463
0.825397
0.825397
2.31829e-16
0.825397
0.802521
0.822789
0.809187
0.825397
0.800794
0.804575
0.815286
0.801236
0.803956
0.807104
0.806559
0.80697
0.815372
0.812097
0.825397
0.825397
0.825397
0.825397
0.825397
1.73364e-14
0.819313
0.825397
0.817104
0.817893
0.797842
0.825397
0.799144
0.798231
0.813618
0.798864
0.802918
0.80016
0.819606
0.810456
0.825397
0.825397
2.80615e-16
0.820055
0.825397
0.825397
0.814948
0.825397
0.825397
0.8089
0.800117
0.812065
0.825397
0.805018
0.80962
0.809105
0.825397
0.813624
0.825397
0.825397
0.825397
3.17129e-13
0.816305
0.819751
0.815987
0.820932
0.825397
0.825397
0.79957
0.811834
0.79753
0.799782
0.82537
0.799517
0.825397
0.801257
0.805636
0.802549
0.802669
0.803265
0.8135
0.825397
0.821862
0.821846
5.52637e-20
1.70976e-13
0.806764
0.81105
0.805575
0.811184
0.803807
0.810576
0.798884
0.804451
0.82537
0.801999
0.804374
0.814493
0.80328
0.802379
0.825397
0.803483
0.805564
0.817141
0.807292
0.809577
0.811932
0.81617
0.815294
0.825397
0.825397
0.825397
1.29088e-22
0.817479
0.812103
0.825397
0.799374
0.798289
0.825397
0.825397
0.79993
0.802953
0.809904
0.804868
0.806741
0.813558
0.809109
0.813858
4.59381e-13
0.824622
0.813834
0.808836
0.817412
0.803366
0.825397
0.825397
0.801671
0.825391
0.800507
0.817229
0.820088
0.803387
0.825397
0.813409
0.800851
0.825397
0.805253
0.809479
0.82539
0.813922
0.809499
0.816703
0.817728
0.822393
0.815475
0.825397
0.823875
0.801686
0.825397
0.825397
0.825397
0.806555
0.817711
0.823347
0.825397
0.805113
0.814484
0.8187
0.825397
0.804431
0.804801
0.812721
0.819936
0.817113
0.821729
0.825397
0.825397
0.80922
0.825397
0.825397
0.825397
0.802115
0.797321
0.819581
0.803185
0.801726
0.809795
0.805695
0.825397
0.806981
0.807132
0.809284
0.809281
0.809426
0.810313
0.825397
0.813563
2.06492e-13
0.810766
0.821673
0.825311
0.810945
0.825397
0.805779
0.802289
0.800186
0.803378
0.799506
0.821087
0.816581
0.804416
0.805604
0.805367
0.81227
0.812967
0.810203
0.818189
0.825397
0.819485
1.13195e-16
0.825397
0.804061
0.810037
0.825392
0.80419
0.806731
0.806239
0.80623
0.809212
0.812571
0.808791
0.810519
0.809642
0.810933
0.812059
0.815911
0.818439
4.59007e-24
0.825397
0.825397
0.805986
0.804645
0.825397
0.813046
0.825397
0.825397
0.799705
0.814351
0.825397
0.809367
0.820054
0.825397
0.803764
0.804435
0.808399
0.81399
0.814843
0.811542
0.812334
0.825397
0.819862
0.825397
0.825397
1.40485e-23
0.820665
0.8109
0.825397
0.804401
0.813373
0.825382
0.825397
0.803212
0.810841
0.816914
0.798337
0.801533
0.803132
0.809063
0.802753
0.80568
0.806919
0.808997
0.803468
0.803729
0.805414
0.812179
0.825243
0.813323
0.817721
0.825397
0.820374
0.825397
0.825397
0.794868
0.825397
0.81317
0.803298
0.806316
0.799767
0.799649
0.80233
0.825397
0.80175
0.801743
0.802288
0.802982
0.81372
0.808065
0.810933
0.825397
7.48113e-23
0.825397
0.818574
0.801479
0.824744
0.799177
0.804155
0.821629
0.825397
0.813096
0.798711
0.804544
0.813796
0.80734
0.804953
0.811636
0.810969
0.825397
0.81231
0.816715
0.815607
6.92962e-14
1.50622e-14
0.81392
0.817251
0.800358
0.820087
0.825397
0.825397
0.800359
0.802812
0.807984
0.816003
0.802603
0.809728
0.808101
0.806398
0.809157
0.822473
0.825397
5.3181e-15
1.32307e-13
6.65261e-14
0.801783
0.81118
0.825397
0.821917
0.813572
0.797839
0.797035
0.823257
0.806516
0.811271
0.825397
0.800857
0.802472
0.804387
0.806607
0.807746
0.811616
0.817702
0.823268
4.12059e-13
0.816527
0.825397
0.825382
0.809137
0.80852
0.796167
0.799374
0.802609
0.812305
0.813662
0.804363
0.816115
0.803955
0.806476
0.805181
0.81153
0.812101
0.80689
0.81705
0.816459
0.821281
2.77098e-24
0.81182
0.824083
0.798704
0.80065
0.825397
0.803212
0.822501
0.80402
0.81044
0.825397
0.802312
0.802666
0.813495
0.802955
0.825397
0.804287
0.807444
0.815942
0.825397
0.818659
0.823285
0.825397
0.825397
0.825397
0.825397
0.825397
0.825397
0.803682
0.825397
0.815893
0.797185
0.79769
0.80019
0.825392
0.802615
0.803286
0.821982
0.802629
0.803662
0.805768
0.807741
0.812915
0.8066
0.816904
0.818322
0.820925
0.825397
0.824501
0.803282
0.825397
0.825397
0.825397
0.812579
0.798611
0.796428
0.80939
0.799666
0.799683
0.801597
0.809238
0.803043
0.804206
0.804239
0.810778
0.804309
0.813117
0.810363
0.812854
0.818792
0.808513
0.813076
0.800832
0.805429
0.795125
0.796847
0.810548
0.80512
0.809697
0.805297
0.804484
0.813777
0.809801
0.814303
0.825397
0.825397
0.820382
0.825397
0.825397
0.818273
0.815559
0.795461
0.817217
0.797034
0.811733
0.799065
0.799517
0.801865
0.804681
0.806998
0.80989
0.810222
0.806951
0.825397
0.8088
0.809714
0.809672
0.822547
0.822429
0.820004
0.825397
2.26311e-13
0.805898
0.810329
0.811178
0.800032
0.802391
0.801485
0.800916
0.804476
0.800683
0.801213
0.803905
0.80899
0.809654
0.805698
0.810803
0.815821
0.825397
0.812909
0.810587
0.824994
0.825397
0.825397
0.814635
0.801632
0.825397
0.802405
0.806647
0.825397
0.811407
0.800433
0.806611
0.808771
0.802624
0.803178
0.80393
0.81843
0.810057
0.810986
0.823227
0.817658
0.825397
0.825397
0.825397
0.825397
0.825397
0.805232
0.815926
0.812128
0.808837
0.796249
0.798046
0.800053
0.807366
0.825397
0.799507
0.802469
0.814599
0.801418
0.804379
0.805094
0.805714
0.804582
0.809858
0.812944
0.825397
0.813932
0.815258
1.41783e-13
0.82119
0.825397
0.825397
0.80475
0.809728
0.818907
0.798532
0.799442
0.815059
0.808382
0.805454
0.80533
0.813346
0.803929
0.809943
0.825397
0.809563
0.825397
0.825397
1.77761e-21
1.10065e-19
0.816265
0.794668
0.825397
0.80528
0.802056
0.798429
0.796781
0.798368
0.802203
0.799394
0.799704
0.800093
0.803377
0.812672
0.802804
0.803847
0.804888
0.815981
7.46624e-20
0.825397
0.825397
0.825397
0.801255
0.825397
0.825259
0.799841
0.803252
0.804702
0.809979
0.799909
0.800428
0.805378
0.804412
0.805342
0.80726
0.814233
0.81169
1.22814e-13
2.10752e-19
0.819198
0.816578
0.810075
0.804253
0.809437
0.810366
0.794796
0.808796
0.797822
0.799248
0.801439
0.825397
0.800445
0.802785
0.806854
0.809845
0.811684
2.0546e-14
0.825397
0.807559
0.819488
0.825397
0.825397
0.812092
0.804219
0.80095
0.803894
0.825397
0.823346
0.798948
0.799218
0.80519
0.814555
0.805547
0.814494
0.807998
0.807155
0.806955
0.825397
0.811572
0.821371
0.825397
2.78357e-21
0.811918
0.805048
0.825397
0.810903
0.825397
0.825397
0.793662
0.812238
0.819788
0.825397
0.798082
0.800355
0.825397
0.812211
0.825397
0.798091
0.801919
0.813173
0.80224
0.804428
0.807034
0.825397
0.824245
0.806277
0.825397
0.821275
0.825397
0.806212
0.825397
0.804424
0.812981
0.816247
0.818091
0.823926
0.798486
0.825397
0.802514
0.803748
0.801319
0.819801
0.80473
0.805654
0.823632
0.825397
0.807949
5.9165e-20
1.1536e-18
0.80502
0.825397
0.818267
0.808004
0.81756
0.804748
0.800273
0.824909
0.820533
0.794888
0.817759
0.81544
0.81847
0.800575
0.80355
0.813476
0.798032
0.80143
0.807222
0.803591
0.810028
0.804487
0.805518
0.805565
0.807814
0.812605
0.815498
0.825397
0.815014
4.48616e-21
2.16935e-24
1.27965e-24
6.53663e-23
1.27218e-24
4.4435e-13
1.37614e-13
9.54e-29
1.291e-13
1.08652e-23
3.63147e-13
2.59363e-13
1.20634e-23
1.6581e-13
1.54613e-25
5.43828e-23
3.44561e-13
3.3522e-13
1.45306e-14
2.60742e-18
2.15098e-13
4.42724e-21
2.62893e-23
4.25028e-13
1.91148e-22
4.14866e-13
8.25368e-21
2.34834e-24
6.712e-20
4.62449e-24
2.41287e-13
6.13913e-14
4.63395e-13
1.53671e-13
8.08095e-14
4.23427e-22
2.70175e-13
3.73519e-21
1.04556e-13
2.55017e-20
2.4111e-24
1.15427e-22
8.64187e-14
1.71657e-13
1.33486e-21
2.12074e-13
1.37664e-22
5.02258e-23
3.12307e-20
5.01174e-24
2.43697e-13
5.40999e-13
4.02484e-24
2.98921e-13
1.55891e-13
6.4378e-14
9.73352e-17
2.13462e-13
9.84492e-23
2.72108e-27
2.1903e-25
3.51417e-15
1.0948e-13
1.15984e-13
2.19641e-19
3.33152e-14
2.79417e-25
1.8489e-17
2.29218e-20
5.25233e-22
3.23129e-13
5.42028e-26
5.80635e-14
7.48605e-24
1.49925e-13
4.34031e-14
3.57768e-22
8.33041e-21
3.35035e-13
1.96119e-20
1.50109e-21
5.83813e-21
5.81649e-18
7.40539e-23
8.44149e-14
2.79973e-23
2.29456e-21
1.65329e-23
4.10781e-16
1.38015e-20
5.98434e-14
3.20014e-22
1.7037e-23
4.34162e-13
1.43431e-23
8.91524e-22
4.35286e-18
4.60476e-15
1.08633e-13
8.19509e-14
2.84657e-13
5.21663e-13
2.84585e-17
3.31549e-17
3.822e-13
5.98132e-23
1.42831e-13
1.3563e-24
4.30794e-20
1.505e-13
1.02641e-13
4.69031e-17
8.53991e-15
1.88963e-17
1.92119e-24
1.53449e-13
1.38683e-20
3.24047e-22
6.95677e-22
4.93139e-14
6.85839e-23
2.69449e-13
8.69448e-16
8.76086e-14
4.90164e-22
8.60956e-14
6.13872e-19
7.55462e-22
1.15177e-13
7.7983e-24
6.17316e-14
2.53629e-22
5.3393e-14
3.95948e-23
2.12486e-24
1.07011e-23
4.44197e-16
4.15456e-23
1.13956e-13
4.16247e-19
2.6838e-17
2.36332e-13
6.72321e-13
2.114e-23
1.10907e-13
8.4484e-14
3.1339e-21
2.33657e-13
3.29962e-13
2.0923e-13
1.98605e-13
6.4069e-18
2.63214e-13
1.20068e-20
4.05009e-25
3.91376e-13
1.0508e-21
6.2999e-23
5.77387e-21
2.47628e-17
5.12522e-24
8.09487e-18
8.50834e-24
9.14565e-17
2.71069e-13
3.22071e-13
3.41266e-16
1.40638e-14
1.55952e-13
1.70475e-23
1.51191e-23
2.12911e-13
3.07953e-13
7.20224e-24
1.64988e-13
6.58173e-18
2.4425e-19
2.96023e-13
2.79983e-23
2.34216e-13
2.30947e-13
1.31664e-22
1.34111e-13
8.65835e-15
2.71204e-14
4.81558e-18
6.408e-20
3.29374e-22
2.57412e-14
4.6328e-18
6.69472e-24
5.03591e-20
1.17534e-13
9.88863e-23
2.29579e-21
2.82822e-21
6.66294e-14
2.43607e-14
9.51834e-22
1.37471e-22
7.05411e-17
4.03515e-18
1.04305e-12
9.60951e-21
1.79505e-13
6.68586e-13
5.76684e-23
1.17388e-16
4.58319e-13
1.92698e-13
8.5031e-19
1.74633e-13
1.79446e-15
1.77378e-13
1.15107e-13
4.04613e-16
9.559e-22
3.23056e-21
2.74558e-22
1.27247e-13
1.49953e-20
1.07577e-18
9.07132e-14
6.8559e-14
2.87375e-13
2.84053e-17
1.76656e-13
1.86372e-22
2.2118e-22
2.23592e-13
1.01268e-13
4.12618e-23
2.09799e-16
3.90228e-14
3.26353e-24
1.81214e-13
7.84936e-20
1.2334e-18
9.4661e-19
2.19081e-13
1.42488e-24
3.1801e-19
2.57565e-20
1.25414e-13
4.34079e-14
1.63782e-13
1.22344e-12
8.65023e-26
1.15809e-23
3.11973e-13
1.86716e-13
5.20677e-13
1.38535e-21
4.67359e-13
1.79548e-17
4.67097e-23
3.62517e-20
2.11608e-13
6.67024e-14
1.57543e-13
2.10341e-21
2.20037e-14
5.78082e-14
3.5976e-13
3.71371e-13
7.46143e-13
4.64618e-16
1.69416e-18
1.81571e-13
2.78983e-13
3.74883e-17
7.26407e-13
1.09407e-14
2.12619e-13
1.97705e-13
5.746e-23
2.34631e-14
1.09653e-12
1.09389e-17
1.73384e-22
3.61585e-14
8.29875e-14
1.40365e-19
3.70241e-17
4.78654e-13
1.58616e-14
2.34612e-14
3.58651e-14
1.09564e-20
1.06218e-19
7.84135e-25
0.825397
0.825397
2.61652e-13
0.825397
2.02793e-23
0.825397
0.825397
6.35096e-14
0.825055
1.82336e-13
8.23597e-23
7.67193e-14
0.825397
0.825397
0.825353
0.825255
0.82514
6.92512e-17
4.23121e-13
0.825397
1.99524e-20
0.825397
0.825181
0.825346
0.825084
1.9214e-13
5.87904e-13
0.825347
0.825285
0.825128
0.824604
0.823775
3.72984e-13
9.19532e-30
2.92268e-16
0.825345
0.824594
0.825264
0.825356
0.825331
0.825389
0.825397
0.825311
0.82527
0.825397
0.824657
0.82509
4.93499e-14
1.73695e-12
7.26208e-17
0.825397
0.820457
0.81967
0.825394
0.825194
4.47989e-14
0.825165
0.823513
4.93443e-21
2.32858e-23
0.825397
0.825397
0.825397
0.821802
7.14808e-22
0.825397
0.825372
0.823778
0.825397
0.825397
0.825395
0.825387
6.94166e-24
0.825389
0.825397
0.823873
0.825397
3.26126e-21
1.87871e-13
7.75474e-19
1.2112e-13
0.825397
0.824998
0.824235
0.825397
0.825374
0.825325
0.818963
0.825391
0.825375
0.825397
0.825397
0.814969
0.825397
0.825397
0.824982