/*--------------------------------*- C++ -*----------------------------------*\
| =========                 |                                                 |
| \\      /  F ield         | OpenFOAM: The Open Source CFD Toolbox           |
|  \\    /   O peration     | Version:  v1906                                 |
|   \\  /    A nd           | Web:      www.OpenFOAM.com                      |
|    \\/     M anipulation  |                                                 |
\*---------------------------------------------------------------------------*/
FoamFile
{
    version     2.0;
    format      ascii;
    class       scalarField;
    location    "2.83/lagrangian/coalCloud1";
    object      YH2(g);
}
// * * * * * * * * * * * * * * * * * * * * * * * * * * * * * * * * * * * * * //


53638
(
0
0
0
0
0
0
0
0
0
0
0
0
0
0
0
0
0
0
0
0
0
0
0
0
0
0
0
0
0
0
0
0
0
0
0
0
0
0
0
0
0
0
0
0
0
0
0
0
0
0
0
0
0
0
0
0
0
0
0
0
0
0
0
0
0
0
0
0
0
0
0
0
0
0
0
0
0
0
0
0
0
0
0
0
0
0
0
0
0
0
0
0
0
0
0
0
0
0
0
0
0
0
0
0
0
0
0
0
0
0
0
0
0
0
0
0
0
0
0
0
0
0
0
0
0
0
0
0
0
0
0
0
0
0
0
0
0
0
0
0
0
0
0
0
0
0
0
0
0
0
0
0
0
0
0
0
0
0
0
0
0
0
0
0
0
0
0
0
0
0
0
0
0
0
0
0
0
0
0
0
0
0
0
0
0
0
0
0
0
0
0
0
0
0
0
0
0
0
0
0
0
0
0
0
0
0
0
0
0
0
0
0
0
0
0
0
0
0
0
0
0
0
0
0
0
0
0
0
0
0
0
0
0
0
0
0
0
0
0
0
0
0
0
0
0
0
0
0
0
0
0
0
0
0
0
0
0
0
0
0
0
0
0
0
0
0
0
0
0
0
0
0
0
0
0
0
0
0
0
0
0
0
0
0
0
0
0
0
0
0
0
0
0
0
0
0
0
0
0
0
0
0
0
0
0
0
0
0
0
0
0
0
0
0
0
0
0
0
0
0
0
0
0
0
0
0
0
0
0
0
0
0
0
0
0
0
0
0
0
0
0
0
0
0
0
0
0
0
0
0
0
0
0
0
0
0
0
0
0
0
0
0
0
0
0
0
0
0
0
0
0
0
0
0
0
0
0
0
0
0
0
0
0
0
0
0
0
0
0
0
0
0
0
0
0
0
0
0
0
0
0
0
0
0
0
0
0
0
0
0
0
0
0
0
0
0
0
0
0
0
0
0
0
0
0
0
0
0
0
0
0
0
0
0
0
0
0
0
0
0
0
0
0
0
0
0
0
0
0
0
0
0
0
0
0
0
0
0
0
0
0
0
0
0
0
0
0
0
0
0
0
0
0
0
0
0
0
0
0
0
0
0
0
0
0
0
0
0
0
0
0
0
0
0
0
0
0
0
0
0
0
0
0
0
0
0
0
0
0
0
0
0
0
0
0
0
0
0
0
0
0
0
0
0
0
0
0
0
0
0
0
0
0
0
0
0
0
0
0
0
0
0
0
0
0
0
0
0
0
0
0
0
0
0
0
0
0
0
0
0
0
0
0
0
0
0
0
0
0
0
0
0
0
0
0
0
0
0
0
0
0
0
0
0
0
0
0
0
0
0
0
0
0
0
0
0
0
0
0
0
0
0
0
0
0
0
0
0
0
0
0
0
0
0
0
0
0
0
0
0
0
0
0
0
0
0
0
0
0
0
0
0
0
0
0
0
0
0
0
0
0
0
0
0
0
0
0
0
0
0
0
0
0
0
0
0
0
0
0
0
0
0
0
0
0
0
0
0
0
0
0
0
0
0
0
0
0
0
0
0
0
0
0
0
0
0
0
0
0
0
0
0
0
0
0
0
0
0
0
0
0
0
0
0
0
0
0
0
0
0
0
0
0
0
0
0
0
0
0
0
0
0
0
0
0
0
0
0
0
0
0
0
0
0
0
0
0
0
0
0
0
0
0
0
0
0
0
0
0
0
0
0
0
0
0
0
0
0
0
0
0
0
0
0
0
0
0
0
0
0
0
0
0
0
0
0
0
0
0
0
0
0
0
0
0
0
0
0
0
0
0
0
0
0
0
0
0
0
0
0
0
0
0
0
0
0
0
0
0
0
0
0
0
0
0
0
0
0
0
0
0
0
0
0
0
0
0
0
0
0
0
0
0
0
0
0
0
0
0
0
0
0
0
0
0
0
0
0
0
0
0
0
0
0
0
0
0
0
0
0
0
0
0
0
0
0
0
0
0
0
0
0
0
0
0
0
0
0
0
0
0
0
0
0
0
0
0
0
0
0
0
0
0
0
0
0
0
0
0
0
0
0
0
0
0
0
0
0
0
0
0
0
0
0
0
0
0
0
0
0
0
0
0
0
0
0
0
0
0
0
0
0
0
0
0
0
0
0
0
0
0
0
0
0
0
0
0
0
0
0
0
0
0
0
0
0
0
0
0
0
0
0
0
0
0
0
0
0
0
0
0
0
0
0
0
0
0
0
0
0
0
0
0
0
0
0
0
0
0
0
0
0
0
0
0
0
0
0
0
0
0
0.0117206
0
0
0
0
0
0
0.011712
0
0
0
0
0.0117194
0
0.0117039
0
0
0.0117206
0.0117206
0
0.0117206
0.0117206
0.0117206
0.0117107
0.0117206
0.0115823
0.0117197
0
0
0.0117206
0.0116034
0.0117206
0.0117206
0.0117206
0.0117206
0.0117206
0.0117206
0
0
0
0.0117206
0.0117206
0.0117206
0.0117206
0.0117206
0.0116955
0.0117206
0.0117206
0.0115689
0.0116515
0.0117188
0
0
0.0116524
0.0116405
0.0117206
0.0117206
0.0117206
0
0.0115499
0.0117206
0.0117206
0.0117206
0
0.0116233
0.0117206
0.0117206
0.0117206
0.011711
0
0
0
0
0.0117201
0.0117206
0.0117206
0.0116316
0.0117206
0.0117206
0
0
0.0117206
0.0116769
0.0117206
0.0117206
0.0117204
0.0117206
0.0114246
0.0116837
0.0117206
0.0117199
0.0117206
0.0117206
0.0114134
0.0117206
0.0113923
0.0114107
0.0116233
0.0117202
0.0117206
0
0
0.0114116
0.0114835
0.0116157
0.0117206
0.0117206
0.0115464
0.0116815
0.0117157
0.011415
0.0114198
0.0117201
0
0.0117206
0.0117206
0.0117206
0.0117206
0.0117206
0.0117206
0.0114499
0.0117141
0.0117206
0
0
0
0.0117206
0.0117206
0.0115301
0.0117206
0.011448
0.0117199
0.0116035
0.0117206
0.0116565
0.0116903
0.0117206
0.0117206
0.0117206
0.0117206
0.0117206
0.0117206
0.0117206
0.0117206
0.0117206
0.0116816
0.0114162
0.0117206
0.0117206
0.0117206
0.0117206
0.0117205
0.0116129
0.0115184
0.0117076
0.0117206
0.0113707
0.0116135
0.0117206
0.0114331
0.0117206
0.0116064
0.0115148
0.0115066
0.0114936
0.0115165
0
0.0116272
0.0116775
0.0115333
0.0114069
0.011453
0.0117206
0.0115379
0.0116663
0.0114726
0.0115724
0.0117206
0.0117206
0.011449
0.0117206
0.0116717
0.0117206
0.0117206
0.0113523
0.0117206
0.01148
0.0117206
0.0117206
0.0117195
0.0114898
0.0117206
0.0115777
0.0115673
0
0.0117206
0.0117206
0.0117206
0.0115866
0.0114889
0.0115233
0.0117206
0.0115155
0.0117206
0.0117206
0.011718
0.0117206
0.0114312
0.0117102
0.011528
0.0117206
0.0117206
0.0115025
0.0116025
0.0117206
0.0117206
0
0.0117206
0.0114341
0.0117206
0.0117206
0.0117205
0.0114674
0.0116417
0.0117206
0.0114326
0.0113909
0.0116005
0.0114239
0.0114298
0.0114404
0.011478
0.0117206
0.0115597
0.0115614
0.0117206
0
0.011544
0.0114981
0.0116298
0.0115608
0.0115687
0.0117174
0.0116772
0.0117206
0.011435
0.0116604
0.0117206
0.0114542
0.0115507
0.0115712
0.0115321
0.0116055
0.0117206
0.0117206
0.0117201
0.0115452
0.0115742
0.0117206
0.0117141
0.0115817
0.011715
0.0114051
0.0113792
0.0117206
0.0114048
0.0114186
0.011474
0.0114287
0.0117206
0.0114901
0.0116755
0.0116055
0.0116604
0.0117206
0.0117206
0
0.0116551
0.0114418
0.0117195
0.0117206
0.0114483
0.0117206
0.0114734
0.0114736
0.0114775
0.0116051
0.0117206
0
0
0.0115585
0.0117206
0.0117206
0.0117206
0.0117206
0.0113286
0.0117206
0.0114419
0.011481
0.0117206
0.0114898
0.0117206
0.0115942
0.0116934
0.0117206
0.0114112
0.0115822
0.0114338
0.0115545
0.0117009
0.0117206
0.0115254
0.0115223
0.0114346
0.0117206
0.0114454
0.0117206
0.0117206
0.0115629
0.0117206
0.0115252
0.0117206
0.0116045
0.0116559
0.0117206
0
0
0.0117206
0.0117206
0.0114104
0.0116442
0.0114536
0.0114877
0.0116309
0.011416
0.0114324
0.0114969
0.0117204
0.0114423
0.0116586
0.0116325
0.0116219
0.0115696
0.0117186
0.0117206
0.0117206
0.0117206
0.0112978
0.011455
0.0117206
0.0117206
0.0116035
0.0117197
0.0113852
0.0117135
0.011408
0.0115375
0.0117206
0.0117206
0.0117206
0
0.0116569
0.0117206
0.0117206
0.0116196
0.0114343
0.0115651
0.0114723
0.011401
0.0116195
0.0114288
0.0115085
0.0114868
0.0115078
0.0115693
0.0114581
0.0115238
0.0115734
0.0115528
0.0115236
0.0116696
0.0117206
0.0117206
0
0
0.0117206
0.0117206
0.0117206
0.0117206
0.0117206
0.011349
0.0117206
0.0117206
0.0117206
0.0114027
0.0114843
0.0117206
0.0114606
0.0116157
0.0114915
0.0114963
0.011555
0.0115633
0.0117206
0.0117206
0.0117206
0
0.0117206
0.0117206
0.0117206
0.011633
0.0115564
0.011634
0.0114363
0.0114499
0.0114231
0.0114354
0.0117206
0.0114775
0.0115268
0.0115393
0.0115377
0.011513
0.0117206
0.0115094
0.0117206
0.0117206
0.0117176
0.0117206
0.0117206
0.0117206
0.0117206
0.0117206
0.0116899
0.0114919
0.0116508
0.0113858
0.0113882
0.011397
0.0114563
0.0117206
0.0114628
0.0115528
0.0116142
0.011605
0.0117206
0.0116339
0.0116722
0.0117206
0.0117206
0.0117206
0.0117206
0
0
0
0.011625
0.011598
0.0117206
0.0117206
0.0117205
0.0117206
0.0113806
0.0114408
0.0114048
0.0114677
0.0114744
0.0114718
0.0114849
0.0116077
0.0117206
0.0117206
0.0115627
0.0115593
0.0117041
0.011573
0.0116003
0.0117206
0.0116151
0.0117206
0.0117206
0.0117147
0.0117206
0.0117206
0.0117201
0.0116857
0.0116688
0.0114221
0.0114987
0.0117206
0.0114818
0.0117206
0.01172
0.0114869
0.0114892
0.0115124
0.0115099
0.0115313
0.0115402
0.0117206
0
0.0117206
0.01136
0.0115339
0.0114305
0.0113354
0.0117206
0.0113653
0.0113952
0.0115165
0.0115183
0.0114577
0.0117206
0.0114425
0.0116207
0.0117206
0.0114586
0.0117206
0.0117206
0.0113912
0.0114538
0.0117206
0.0117206
0.0114592
0.0114039
0.0117206
0.0117206
0.0114256
0.0115292
0.0117206
0.0114021
0.0115265
0.0116478
0.0114548
0.0114934
0.0115
0.0117206
0.0114987
0.0116095
0.0117206
0.0117206
0.0117206
0.0116172
0.0115605
0.0113871
0.0114819
0.0115866
0.0114045
0.0114322
0.0113992
0.0113983
0.0114841
0.011512
0.0117206
0.0114674
0.011667
0.011511
0.0115599
0.0115096
0.0115211
0.0116206
0
0.0116257
0.0117206
0.0116414
0.0117056
0.011331
0.0117206
0.0115788
0.0114217
0.011392
0.0116378
0.0117206
0.0114325
0.011517
0.0114419
0.0114875
0.0114322
0.0115636
0.0114958
0.0115627
0.0117206
0.011584
0.0117206
0.0117206
0.0116334
0.0117206
0.0117206
0.0114435
0.0115939
0.0113868
0.0113075
0.0113133
0.0117206
0.0113251
0.0114518
0.011401
0.0114014
0.0115418
0.0115342
0.0114789
0.0115076
0.0117206
0.0115485
0.0117206
0.0117206
0.0117206
0
0.0117206
0.0117205
0.0114558
0.0117203
0.0113472
0.0117206
0.0114609
0.0115423
0.0115084
0.0114098
0.011414
0.0117206
0.011459
0.0115794
0.0114768
0.0115208
0.0115855
0.0117042
0.0117206
0.0116677
0
0.0117206
0.0114932
0.0117206
0.011387
0.0113334
0.0115972
0.0116404
0.0117206
0.0116986
0.0115435
0.011593
0.0117206
0.0114222
0.0114512
0.0115516
0.0114573
0.0117206
0.0114928
0.0115106
0.0117206
0.01155
0.011703
0.0117206
0.0117206
0.0117035
0.0115706
0.0115056
0.0116542
0.0117206
0.0113414
0.011467
0.0114879
0.0114624
0.0115351
0.0115867
0.0115415
0.0116001
0.0116262
0.0117206
0.0116923
0.0116506
0.0117206
0.0117206
0
0.0117206
0.0113958
0.0116836
0.0114905
0.0117206
0.0113713
0.011425
0.0115771
0.0113775
0.0114162
0.0114609
0.0114531
0.011459
0.0115783
0.0115318
0.0117206
0.0117206
0.0117206
0.0117206
0.0117206
0
0.0116342
0.0117206
0.0116029
0.0116141
0.0113294
0.0117206
0.0113478
0.0113349
0.0115534
0.0113439
0.0114014
0.0113623
0.0116384
0.0115085
0.0117206
0.0117206
0
0.0116448
0.0117206
0.0117206
0.0115723
0.0117206
0.0117206
0.0114864
0.0113617
0.0115313
0.0117206
0.0114313
0.0114966
0.0114893
0.0117206
0.0115535
0.0117206
0.0117206
0.0117206
0
0.0115915
0.0116405
0.011587
0.0116572
0.0117206
0.0117206
0.0113539
0.011528
0.0113249
0.0113569
0.0117202
0.0113531
0.0117206
0.0113778
0.01144
0.0113962
0.0113979
0.0114064
0.0115517
0.0117206
0.0116704
0.0116702
0
0
0.011456
0.0115169
0.0114392
0.0115188
0.0114141
0.0115102
0.0113442
0.0114232
0.0117203
0.0113884
0.0114221
0.0115658
0.0114066
0.0113938
0.0117206
0.0114095
0.011439
0.0116034
0.0114636
0.011496
0.0115294
0.0115896
0.0115772
0.0117206
0.0117206
0.0117206
0
0.0116082
0.0115319
0.0117206
0.0113511
0.0113357
0.0117206
0.0117206
0.011359
0.0114019
0.0115006
0.0114291
0.0114557
0.0115525
0.0114894
0.0115568
0
0.0117096
0.0115564
0.0114855
0.0116072
0.0114078
0.0117206
0.0117206
0.0113837
0.0117206
0.0113672
0.0116046
0.0116452
0.0114081
0.0117206
0.0115504
0.0113721
0.0117206
0.0114346
0.0114946
0.0117205
0.0115577
0.0114949
0.0115972
0.0116117
0.011678
0.0115797
0.0117206
0.011699
0.0113839
0.0117206
0.0117206
0.0117206
0.0114531
0.0116115
0.0116915
0.0117206
0.0114326
0.0115657
0.0116255
0.0117206
0.0114229
0.0114282
0.0115406
0.0116431
0.011603
0.0116685
0.0117206
0.0117206
0.0114909
0.0117206
0.0117206
0.0117206
0.01139
0.011322
0.0116381
0.0114052
0.0113845
0.0114991
0.0114409
0.0117206
0.0114591
0.0114613
0.0114918
0.0114918
0.0114938
0.0115064
0.0117206
0.0115526
0
0.0115129
0.0116678
0.0117194
0.0115154
0.0117206
0.0114421
0.0113925
0.0113626
0.011408
0.011353
0.0116594
0.0115955
0.0114227
0.0114396
0.0114362
0.0115342
0.0115441
0.0115049
0.0116183
0.0117206
0.0116367
0
0.0117206
0.0114177
0.0115025
0.0117206
0.0114195
0.0114556
0.0114486
0.0114485
0.0114908
0.0115385
0.0114848
0.0115094
0.0114969
0.0115153
0.0115312
0.0115859
0.0116218
0
0.0117206
0.0117206
0.011445
0.011426
0.0117206
0.0115452
0.0117206
0.0117206
0.0113558
0.0115638
0.0117206
0.011493
0.0116448
0.0117206
0.0114135
0.011423
0.0114793
0.0115587
0.0115708
0.0115239
0.0115351
0.0117206
0.011642
0.0117206
0.0117206
0
0.0116534
0.0115148
0.0117206
0.0114225
0.0115499
0.0117204
0.0117206
0.0114056
0.0115139
0.0116002
0.0113364
0.0113818
0.0114045
0.0114887
0.0113991
0.0114407
0.0114583
0.0114878
0.0114092
0.011413
0.0114369
0.0115329
0.0117185
0.0115492
0.0116116
0.0117206
0.0116493
0.0117206
0.0117206
0.0112871
0.0117206
0.011547
0.0114068
0.0114497
0.0113567
0.011355
0.0113931
0.0117206
0.0113848
0.0113847
0.0113925
0.0114024
0.0115548
0.0114745
0.0115153
0.0117206
0
0.0117206
0.0116238
0.011381
0.0117114
0.0113483
0.011419
0.0116671
0.0117206
0.011546
0.0113417
0.0114245
0.0115559
0.0114642
0.0114303
0.0115252
0.0115158
0.0117206
0.0115348
0.0115974
0.0115816
0
0
0.0115577
0.011605
0.0113651
0.0116452
0.0117206
0.0117206
0.0113651
0.0113999
0.0114734
0.0115872
0.011397
0.0114981
0.011475
0.0114509
0.01149
0.0116791
0.0117206
0
0
0
0.0113853
0.0115188
0.0117206
0.0116712
0.0115527
0.0113293
0.0113179
0.0116902
0.0114525
0.0115201
0.0117206
0.0113722
0.0113951
0.0114223
0.0114538
0.01147
0.011525
0.0116114
0.0116904
0
0.0115947
0.0117206
0.0117204
0.0114897
0.011481
0.0113056
0.0113511
0.011397
0.0115347
0.011554
0.0114219
0.0115888
0.0114162
0.011452
0.0114336
0.0115237
0.0115318
0.0114578
0.0116021
0.0115937
0.0116622
0
0.0115278
0.011702
0.0113416
0.0113692
0.0117206
0.0114056
0.0116795
0.0114171
0.0115083
0.0117206
0.0113928
0.0113979
0.0115516
0.011402
0.0117206
0.0114209
0.0114657
0.0115864
0.0117206
0.011625
0.0116906
0.0117206
0.0117206
0.0117206
0.0117206
0.0117206
0.0117206
0.0114123
0.0117206
0.0115857
0.01132
0.0113272
0.0113627
0.0117206
0.0113971
0.0114067
0.0116721
0.0113973
0.011412
0.0114419
0.0114699
0.0115434
0.0114537
0.0116
0.0116202
0.0116571
0.0117206
0.0117079
0.0114066
0.0117206
0.0117206
0.0117206
0.0115386
0.0113403
0.0113093
0.0114933
0.0113553
0.0113555
0.0113827
0.0114912
0.0114032
0.0114197
0.0114202
0.011513
0.0114212
0.0115463
0.0115072
0.0115425
0.0116268
0.0114809
0.0115457
0.0113718
0.0114371
0.0112908
0.0113152
0.0115098
0.0114327
0.0114977
0.0114352
0.0114237
0.0115556
0.0114992
0.0115631
0.0117206
0.0117206
0.0116494
0.0117206
0.0117206
0.0116195
0.0115809
0.0112955
0.0116045
0.0113179
0.0115266
0.0113467
0.0113531
0.0113865
0.0114265
0.0114594
0.0115004
0.0115052
0.0114587
0.0117206
0.011485
0.0114979
0.0114973
0.0116802
0.0116785
0.0116441
0.0117206
0
0.0114438
0.0115067
0.0115187
0.0113605
0.011394
0.0113811
0.011373
0.0114236
0.0113697
0.0113772
0.0114155
0.0114877
0.0114971
0.0114409
0.0115134
0.0115847
0.0117206
0.0115433
0.0115103
0.0117149
0.0117206
0.0117206
0.0115678
0.0113832
0.0117206
0.0113942
0.0114544
0.0117206
0.011522
0.0113662
0.0114539
0.0114846
0.0113973
0.0114051
0.0114158
0.0116217
0.0115028
0.011516
0.0116898
0.0116107
0.0117206
0.0117206
0.0117206
0.0117206
0.0117206
0.0114343
0.0115861
0.0115322
0.0114855
0.0113067
0.0113323
0.0113607
0.0114646
0.0117206
0.011353
0.0113951
0.0115673
0.0113801
0.0114222
0.0114323
0.0114411
0.0114251
0.0115
0.0115438
0.0117206
0.0115578
0.0115767
0
0.0116609
0.0117206
0.0117206
0.0114274
0.0114981
0.0116285
0.0113392
0.0113521
0.0115738
0.011479
0.0114374
0.0114357
0.0115495
0.0114158
0.0115012
0.0117206
0.0114958
0.0117206
0.0117206
0
0
0.011591
0.0112843
0.0117206
0.011435
0.0113892
0.0113377
0.0113143
0.0113368
0.0113913
0.0113514
0.0113558
0.0113613
0.011408
0.0115399
0.0113998
0.0114146
0.0114294
0.0115869
0
0.0117206
0.0117206
0.0117206
0.0113778
0.0117206
0.0117187
0.0113577
0.0114062
0.0114268
0.0115017
0.0113587
0.0113661
0.0114364
0.0114227
0.0114359
0.0114631
0.0115621
0.011526
0
0
0.0116326
0.0115954
0.0115031
0.0114204
0.011494
0.0115072
0.0112861
0.0114849
0.0113291
0.0113493
0.0113804
0.0117206
0.0113663
0.0113995
0.0114573
0.0114998
0.0115259
0
0.0117206
0.0114673
0.0116367
0.0117206
0.0117206
0.0115317
0.0114199
0.0113735
0.0114153
0.0117206
0.0116915
0.0113451
0.0113489
0.0114337
0.0115667
0.0114388
0.0115658
0.0114736
0.0114616
0.0114588
0.0117206
0.0115243
0.0116635
0.0117206
0
0.0115292
0.0114317
0.0117206
0.0115148
0.0117206
0.0117206
0.01127
0.0115338
0.011641
0.0117206
0.0113328
0.011365
0.0117206
0.0115334
0.0117206
0.0113329
0.0113873
0.0115471
0.0113918
0.0114229
0.0114599
0.0117206
0.0117043
0.0114491
0.0117206
0.0116621
0.0117206
0.0114482
0.0117206
0.0114228
0.0115443
0.0115907
0.0116169
0.0116997
0.0113385
0.0117206
0.0113957
0.0114132
0.0113787
0.0116412
0.0114272
0.0114403
0.0116956
0.0117206
0.0114729
0
0
0.0114313
0.0117206
0.0116194
0.0114737
0.0116094
0.0114274
0.0113639
0.0117137
0.0116516
0.0112874
0.0116122
0.0115792
0.0116223
0.0113682
0.0114104
0.0115514
0.0113321
0.0113803
0.0114625
0.011411
0.0115024
0.0114237
0.0114384
0.011439
0.011471
0.011539
0.0115801
0.0117206
0.0115732
0
0
0
0
0
0
0
0
0
0
0
0
0
0
0
0
0
0
0
0
0
0
0
0
0
0
0
0
0
0
0
0
0
0
0
0
0
0
0
0
0
0
0
0
0
0
0
0
0
0
0
0
0
0
0
0
0
0
0
0
0
0
0
0
0
0
0
0
0
0
0
0
0
0
0
0
0
0
0
0
0
0
0
0
0
0
0
0
0
0
0
0
0
0
0
0
0
0
0
0
0
0
0
0
0
0
0
0
0
0
0
0
0
0
0
0
0
0
0
0
0
0
0
0
0
0
0
0
0
0
0
0
0
0
0
0
0
0
0
0
0
0
0
0
0
0
0
0
0
0
0
0
0
0
0
0
0
0
0
0
0
0
0
0
0
0
0
0
0
0
0
0
0
0
0
0
0
0
0
0
0
0
0
0
0
0
0
0
0
0
0
0
0
0
0
0
0
0
0
0
0
0
0
0
0
0
0
0
0
0
0
0
0
0
0
0
0
0
0
0
0
0
0
0
0
0
0
0
0
0
0
0
0
0
0
0
0
0
0
0
0
0
0
0
0
0
0
0
0
0
0
0
0
0
0
0
0
0
0
0
0
0
0
0
0
0
0
0
0
0
0
0
0
0
0
0
0
0
0
0
0
0
0
0
0
0
0
0
0
0
0
0.0117206
0.0117206
0
0.0117206
0
0.0117206
0.0117206
0
0.0117158
0
0
0
0.0117206
0.0117206
0.01172
0.0117186
0.011717
0
0
0.0117206
0
0.0117206
0.0117176
0.0117199
0.0117162
0
0
0.0117199
0.011719
0.0117168
0.0117094
0.0116976
0
0
0
0.0117199
0.0117092
0.0117187
0.01172
0.0117197
0.0117205
0.0117206
0.0117194
0.0117188
0.0117206
0.0117101
0.0117163
0
0
0
0.0117206
0.0116505
0.0116393
0.0117206
0.0117178
0
0.0117173
0.0116939
0
0
0.0117206
0.0117206
0.0117206
0.0116696
0
0.0117206
0.0117203
0.0116976
0.0117206
0.0117206
0.0117206
0.0117205
0
0.0117205
0.0117206
0.011699
0.0117206
0
0
0
0
0.0117206
0.011715
0.0117041
0.0117206
0.0117203
0.0117196
0.0116293
0.0117205
0.0117203
0.0117206
0.0117206
0.0115726
0.0117206
0.0117206
0.0117147
0.0117044
0.0117206
0.0117206
0.0116579
0.011685
0.0117206
0.0117206
0.0117206
0.0117206
0.0117206
0.0117206
0.0117183
0.011713
0.0117206
0.0117206
0.0117206
0.0117184
0.0117177
0.01172
0.0117185
0.0117206
0.0117163
0.0117196
0.0117206
0.0117206
0.0117206
0.0117204
0.0114396
0.0117206
0.011719
0
0.0117199
0.0117202
0.0117204
0.0117206
0.0117068
0.0117163
0.0117206
0.0117197
0.0117206
0.0117206
0.0117206
0.0117206
0.0117206
0.0117206
0.0117206
0.0117199
0.0117169
0.0117203
0.0117206
0.0117192
0.0117184
0.0117206
0.0116871
0.0117206
0.0117121
0
0.0117201
0.0117078
0.011717
0.0117206
0.0117196
0.0117206
0.0117206
0.0117206
0.0115195
0.0117206
0.0117204
0.0117206
0.0117206
0.0117206
0.0117192
0.0117145
0.0116943
0.0117116
0.0117205
0.011719
0.0117206
0.0117206
0.0117206
0
0
0
0
0
0.0117198
0.011718
0.0116223
0.0117206
0.0117206
0.0117136
0
0.0117206
0.01172
0.0117206
0.0117206
0.0116982
0.0117206
0.0117159
0.0117206
0.0115611
0.0117206
0.0117202
0.0117203
0.0117206
0.0117206
0.0116775
0.0117206
0.0117077
0.0117206
0.0117206
0.0117206
0.0117206
0.0117204
0.0117206
0.0117206
0.0117206
0
0.0117206
0.0117206
0.0117189
0.0117206
0.0117194
0.0117203
0.0117156
0.0116225
0.0117201
0.0117206
0.0117202
0
0.0117195
0.0117197
0.01172
0.0117206
0.0117206
0.011714
0.0117206
0.0117206
0.0117206
0.0117206
0.0116168
0.0117068
0.0117206
0.0117204
0.0117205
0.0117206
0.0117206
0
0.0117206
0.0117206
0.0116571
0.0117206
0.0117206
0.0117206
0.0117206
0.0117135
0.0116915
0.0117206
0.0117206
0.0117206
0.0117206
0.0117206
0.0117201
0.0117206
0
0.0117206
0.0117206
0.0117183
0.0117206
0.0117206
0.0117143
0.0117128
0.0117195
0.0117205
0.0117206
0.0115807
0.0117103
0.0117206
0.0117173
0.0117206
0.01172
0
0.01172
0.0117195
0.0117157
0.0117135
0.0117206
0.0117206
0.0114286
0.0116966
0.011595
0.0114761
0.0116328
0.0117206
0.0115633
0.0117206
0.0117206
0.0116981
0.0117206
0.0117206
0.0117206
0.0117206
0.0117206
0.0117206
0
0
0.0117204
0.0117121
0.0117125
0.0115407
0.0117206
0.0117204
0.0115208
0.0116759
0.0116116
0.0117206
0.0117206
0.0116976
0.0117206
0.0117206
0.0117206
0.0117206
0.0117206
0.0117206
0.0117206
0.0115575
0.0117021
0.0117206
0.0117206
0.0116449
0.0117206
0.0117206
0.0117199
0.0117206
0.0117206
0.0116252
0.0117206
0.0117206
0.0117206
0.0117206
0.0117206
0.0117206
0.0117206
0.0117206
0.0117206
0.0117206
0
0
0.0117189
0.01172
0.0117206
0.01172
0.0116873
0.0117206
0.0117206
0.0117206
0.0117206
0.0115489
0.0115889
0.01172
0.0117206
0.0115963
0.0117104
0.0116165
0.0117206
0.0117206
0.0117206
0.0117206
0.0117206
0.0117206
0.0117206
0.0117206
0.0117206
0.0117205
0.0117201
0.0117206
0.0117202
0.0117201
0.0117203
0.0117206
0.0117206
0.0117206
0.0114881
0.0117066
0.0116832
0.0117198
0.0116307
0.011537
0.0116612
0.0116044
0.0117172
0.0117206
0.0117206
0.0117206
0.0117206
0.0117206
0.0117206
0.0117206
0.0117202
0.0117206
0.0117204
0.0117204
0.0117153
0.0116131
0.0116067
0.0114923
0.0116998
0.0115251
0.0117032
0.0117206
0.0117206
0.0117206
0.011628
0.0117206
0.0117206
0.0117206
0.0117206
0.0116291
0.0117206
0.0117206
0.0117206
0.0117206
0.0117206
0.0117206
0.0117206
0.0117206
0.0117206
0.0117206
0.0117204
0
0.0117206
0.0117137
0.0117206
0.0115772
0.0116309
0.0116918
0.0115644
0.011651
0.0117206
0.0117204
0.0117206
0.0117206
0.0117206
0.0117206
0.0117206
0.0117206
0.0117206
0.0117206
0.0117206
0.0117206
0
0
0.0117206
0.0117206
0.0117158
0.0117108
0.0117206
0.0117206
0.0116569
0.0117206
0.0114607
0.0117206
0.0117206
0.0117206
0
0
0
0
0.0117205
0.0117206
0.011719
0.0117196
0.0117206
0.0116585
0.0116447
0.0115863
0.0117206
0.0116959
0.0115987
0.0117206
0.0116619
0.0117206
0.0117206
0.0117206
0.0117206
0.0117206
0.0117206
0
0
0
0.0117195
0.0117206
0.0117206
0.0117206
0.0117206
0.0116536
0.0115509
0.0115102
0.0117206
0.0117206
0.0117206
0.0117192
0.0117206
0.0116352
0.0117206
0.0117206
0.0117206
0.0117206
0.01172
0.0117206
0.0117206
0.0117202
0
0
0.0117206
0.0117142
0.0117145
0.0117202
0.0117203
0.0114696
0.0117206
0.0115126
0.0115256
0.0116349
0.0116852
0.0117206
0.0117206
0.0117206
0.0117199
0.0117206
0.0117206
0.0117206
0.0117206
0
0.0117189
0.0117149
0.0117206
0.0115911
0.0115678
0.0117206
0.0117206
0.011617
0.0116096
0.0117139
0.0117206
0.0117206
0.0117206
0.0117206
0
0
0.0117206
0.0117206
0.0117206
0.011716
0.0117206
0.0117206
0.0115745
0.0117188
0.0116058
0.0117179
0.0116317
0.0117206
0.0117206
0.0117206
0.0116176
0.0117206
0.0117206
0.0117206
0.0117206
0.0117206
0.0117206
0.0117206
0.0117206
0
0.0117206
0.0117068
0.0117128
0.0117134
0.0117206
0.0117206
0.011715
0.0117206
0.011707
0.0117206
0.0115681
0.0115884
0.0116921
0.0117206
0.0117206
0.0117204
0.0117206
0
0.0117206
0.0117203
0.0117185
0.01171
0.0117194
0.0117205
0.0117205
0.0117202
0.0117206
0.0117187
0.0117177
0.0117206
0.0117206
0.0117206
0.0117206
0.0115651
0.0117206
0.0117054
0.0117206
0.0117206
0.0117206
0.0117206
0.0117206
0
0
0
0.0117206
0.0117206
0.0117081
0.0117201
0.0117206
0.0115367
0.0116916
0.0117201
0.0116616
0.0117206
0.0117206
0.0117206
0.0117206
0.0117206
0.0117206
0.0117206
0
0
0
0.0117205
0.0117117
0.0117206
0.0115624
0.0117206
0.0117206
0.0115005
0.0117204
0.0116697
0.0117205
0.0115605
0.0115145
0.0116605
0.0116991
0.0116485
0.0117206
0.0117205
0.0117206
0.0117206
0.0117206
0.0117206
0.0117206
0
0.0117123
0.0117132
0.0117206
0.0117206
0.0117206
0.0116025
0.0117206
0.0117206
0.0115645
0.0117206
0.0117206
0.0116581
0.0117206
0.0117206
0.0117206
0.0117206
0.0117206
0.0117206
0.0117206
0.0117206
0.0117202
0
0
0.0117206
0.0117206
0.0117204
0.011717
0.0117206
0.0117131
0.0117206
0.0117161
0.0116356
0.0117204
0.0117206
0.0116561
0.0115862
0.0117206
0.0117206
0.0117206
0.0117205
0.0117206
0.0117205
0.0117206
0.0117201
0.0117206
0.0117194
0.0117206
0.0117206
0.0114916
0.011482
0.0117206
0.0115875
0.0115991
0.0117206
0.0117206
0.0116445
0.0116433
0.0117206
0.0117206
0.0117206
0.0117206
0.0117206
0
0
0.0117206
0.0117036
0.0117206
0.0117206
0.0117206
0.0114732
0.0117206
0.0117206
0.0115389
0.0117206
0.0117203
0.0115069
0.0117203
0.0117197
0.0117206
0.0117116
0.0117203
0.0117206
0.0117206
0
0
0.0117206
0.0117204
0.0116647
0.0117186
0.0117203
0.0117186
0.0115811
0.0115194
0.0114529
0.0116918
0.0117182
0.0115215
0.0117206
0.0116452
0.0117206
0.0117205
0.0117206
0
0
0.0117202
0.0117206
0.011719
0.0117206
0.011624
0.0116994
0.0117206
0.0117206
0.0117206
0.0116478
0.0116972
0.0117206
0.0117206
0.0116292
0.0116098
0.0116867
0.0117206
0.0117206
0.0117204
0.0117206
0.0117206
0.0117206
0.0117206
0.0113683
0.0117206
0.0117186
0.0117201
0.0114968
0.0115512
0.0114437
0.0117206
0.0117206
0.0117206
0.0117206
0.0117206
0.0116707
0.0117206
0.0117206
0.0117206
0.0117206
0.0117206
0.0117206
0.0117206
0
0
0
0.0117206
0.0117204
0.0114584
0.0117168
0.0117206
0.0114319
0.0114717
0.0115944
0.0117206
0.0117164
0.0117206
0.0117206
0.0117206
0.0117206
0.0117206
0
0.0117206
0.0117206
0.0117198
0.0117206
0.0117206
0.0116052
0.0114829
0.0114858
0.0114787
0.01148
0.0115899
0.0115774
0.0115036
0.0115219
0.0115346
0.0117171
0.01172
0.0117007
0.0117206
0.0117032
0.0117206
0.0117206
0.0117206
0.0117206
0.0117206
0.0117206
0.0117206
0.0117206
0.0117206
0.0117206
0.0117205
0.0117206
0
0.0117206
0.0117199
0.0117202
0.0117205
0.0117206
0.0117206
0.0117203
0.0117206
0.0117206
0.0116988
0.011558
0.0114758
0.0117104
0.0117206
0.0116659
0.0116709
0.0117206
0.0117206
0.0117206
0.0116917
0.0117206
0.0117206
0.0117206
0
0.0117206
0.0117206
0.0115881
0.0117206
0.0114836
0.0116494
0.0117206
0.0117206
0.0116632
0.0116392
0.0117201
0.0117206
0.0117206
0.0117206
0.0117206
0
0.0117206
0.0117205
0.0117203
0.0117108
0.0117173
0.0117206
0.0117206
0.0117206
0.01145
0.0115276
0.0116477
0.0117206
0.0117206
0.0117206
0.0116835
0.0115925
0.0115867
0.0117206
0.0117206
0.0117206
0.0117206
0.0117206
0.0117206
0.0117206
0.0117206
0.0117206
0.0117206
0.0117206
0
0.011718
0.0117094
0.0117192
0.011714
0.0117204
0.0117206
0.0117206
0.011542
0.0117121
0.0117206
0.0117206
0.0117206
0.0117206
0.0117206
0
0.0117206
0.0117204
0.0117206
0.0116955
0.0117103
0.0117206
0.0117202
0.0117146
0.0115333
0.0114554
0.0115977
0.0117205
0.0117206
0.0117206
0.0117206
0.0117206
0.0117206
0.0117206
0.0117206
0.0117206
0.0117206
0.0117206
0.0117206
0.0117206
0.0117206
0.0117178
0.0117206
0.0117205
0.0115795
0.0117206
0.0115395
0.0115064
0.0115685
0.0116238
0.0116986
0.0116672
0.0117206
0.0117206
0.0117206
0.0117206
0.0117206
0.0117206
0
0
0.0117206
0.0117206
0.0117206
0.0117206
0.0117206
0.0117206
0.0114653
0.0117206
0.0116767
0.0117122
0.0117206
0.0117112
0.0114473
0.0116481
0.0117206
0.0117206
0.0117206
0.011518
0.0117188
0.0117206
0.0117031
0.0116218
0.0117206
0.0117206
0.0116874
0.0117088
0.0117206
0.0117201
0
0.0117206
0.0117206
0.0117206
0.0114595
0.0114806
0.011569
0.0117206
0.0115143
0.0116551
0.0117206
0.0117206
0.0117206
0.0117047
0.0117206
0.0116369
0.0117206
0.0117206
0.0117203
0.0117206
0.0117204
0.0117206
0.0117206
0
0.0117206
0.0117206
0.0117206
0.0117206
0.0117206
0.0117205
0.0117195
0.0115464
0.0114289
0.0117206
0.0117206
0.0115964
0.011581
0.0117206
0.0117206
0.0116954
0.0117206
0.0117206
0.0117206
0.0117206
0.0117206
0.0117206
0.0117206
0
0
0.0116452
0.0117206
0.0117206
0.0117206
0.0115222
0.0115719
0.0114998
0.0116437
0.0117206
0.01147
0.0116636
0.0115893
0.0115669
0.0115795
0.0116781
0.0117206
0.0117206
0.0117206
0.0117206
0.0117206
0.0117206
0.0117206
0.0117206
0.0117206
0.0117206
0.0117123
0.0115966
0.0117171
0.0116734
0.0117206
0.0114086
0.0116832
0.0117206
0.0117206
0.0117206
0.0117206
0.0115318
0.0116217
0.0114854
0.0116976
0.0117206
0.0116983
0.0116405
0.0117206
0.0117206
0.0117206
0
0
0
0.0115954
0.0117203
0.0116222
0.0115779
0.0116132
0.0115565
0.0115783
0.0117206
0.0116654
0.0117206
0.0117206
0.0117206
0.0117176
0.0117206
0.0117206
0.0117204
0.0117206
0.0117206
0.0117205
0.0117056
0.0117206
0.011414
0.0116032
0.0117206
0.01167
0.0115282
0.0115281
0.0117206
0.0117206
0.0117206
0.0117206
0.0117206
0.0117206
0.0117205
0.0117206
0.0117185
0.0117202
0.0117203
0.0116091
0.0117167
0.0117206
0.0117206
0.0114238
0.0117206
0.0117206
0.0115558
0.0116591
0.0117206
0.0117206
0.0117206
0.0117206
0
0.0117204
0.0117191
0.0117121
0.0117196
0.0115246
0.0115576
0.0117206
0.01145
0.0115604
0.0117206
0.0116786
0.0114767
0.0115187
0.0117206
0.0116621
0.0117205
0.0117188
0.0117206
0.0117206
0.0117206
0.0117206
0.0117206
0.0114634
0.0117206
0.0114145
0.0114453
0.0117206
0.0117206
0.0115596
0.0117206
0.0117206
0.0116996
0.0116254
0.0117206
0.0117206
0.0117206
0.0117206
0.0117206
0.0117206
0.0117206
0
0.0114915
0.0117206
0.0117206
0.0117206
0.0116227
0.0117206
0.0117206
0.0115966
0.0117187
0.0117206
0.0116619
0.0117206
0.0115716
0.0116822
0.0117206
0.0116001
0.0116214
0.0116483
0.0116803
0.0116941
0.0117206
0.0117206
0.0117206
0.0117206
0
0.0117206
0.0117206
0.0117206
0.0117206
0.0117206
0.0116054
0.0117205
0.0116272
0.0115785
0.0114801
0.0115173
0.0116189
0.0115577
0.0114971
0.0115407
0.011644
0.0117206
0.0117206
0.0117206
0.0117206
0.0117181
0.0115317
0.0115563
0.0117206
0.0117206
0.0114583
0.0115136
0.0117206
0.0114638
0.0114898
0.0115514
0.0115441
0.0115451
0.0116128
0.0117206
0.0117206
0.0115821
0.0117126
0.0117206
0.0117206
0.0117206
0.0117206
0.0117206
0.0117206
0.0116755
0.0114577
0.0117046
0.0117206
0.0117206
0.0115793
0.0117206
0.0114717
0.0117194
0.0115508
0.0115881
0
0
0
0.0117206
0.0117206
0.0117181
0.0113896
0.0114247
0.0116659
0.0114455
0.0115209
0.0114894
0.0114979
0.0117206
0.0116817
0.0117206
0.0117206
0.0117206
0.0117206
0.0117206
0.0117206
0.0117206
0.0117206
0.0117203
0.0117206
0.0117206
0.0117206
0.0116809
0.0117206
0.0117206
0.0115699
0.0117206
0.0117206
0.0116372
0.0117206
0.0116909
0.0114895
0.0115092
0.0117206
0.0117206
0.0117206
0.0117206
0.0117206
0.0117206
0
0.0117206
0.0115556
0.0117206
0.0117206
0.0117203
0.0117206
0.0117206
0.0117206
0.0117206
0.0116791
0.0114965
0.011485
0.0115697
0.0117206
0.0115102
0.0115592
0.0115627
0.0117206
0.0115918
0.0117206
0.0117206
0.0117206
0
0.0117206
0.0117206
0.0117187
0.0117197
0.0114158
0.0116357
0.0113753
0.0117206
0.0117206
0.0117206
0.0117206
0.0115508
0.0115091
0.0116559
0.0115451
0.0116315
0.0117206
0.011606
0.0116404
0.0117206
0.0117206
0.0117206
0.0117206
0.0117206
0
0
0.0117206
0.01172
0.0117195
0.0117206
0.0117206
0.0117128
0.0116072
0.0117206
0.0115038
0.0115382
0.0115855
0.0114951
0.0116076
0.0115103
0.011543
0.0115576
0.0115717
0.0117206
0.0117206
0.0117206
0.0117206
0.0117206
0.0117206
0.0117206
0.0117206
0.0114896
0.0115508
0.0117204
0.0117206
0.0117206
0.0117205
0.0116268
0.0116661
0.0115335
0.0115716
0.0117206