/*--------------------------------*- C++ -*----------------------------------*\
| =========                 |                                                 |
| \\      /  F ield         | OpenFOAM: The Open Source CFD Toolbox           |
|  \\    /   O peration     | Version:  v1906                                 |
|   \\  /    A nd           | Web:      www.OpenFOAM.com                      |
|    \\/     M anipulation  |                                                 |
\*---------------------------------------------------------------------------*/
FoamFile
{
    version     2.0;
    format      ascii;
    class       scalarField;
    location    "2.83/lagrangian/coalCloud1";
    object      YH2O(l);
}
// * * * * * * * * * * * * * * * * * * * * * * * * * * * * * * * * * * * * * //


53638
(
0
0
0
0
0
0
0
0
0
0
0
0
0
0
0
0
0
0
0
0
0
0
0
0
0
0
0
0
0
0
0
0
0
0
0
0
0
0
0
0
0
0
0
0
0
0
0
0
0
0
0
0
0
0
0
0
0
0
0
0
0
0
0
0
0
0
0
0
0
0
0
0
0
0
0
0
0
0
0
0
0
0
0
0
0
0
0
0
0
0
0
0
0
0
0
0
0
0
0
0
0
0
0
0
0
0
0
0
0
0
0
0
0
0
0
0
0
0
0
0
0
0
0
0
0
0
0
0
0
0
0
0
0
0
0
0
0
0
0
0
0
0
0
0
0
0
0
0
0
0
0
0
0
0
0
0
0
0
0
0
0
0
0
0
0
0
0
0
0
0
0
0
0
0
0
0
0
0
0
0
0
0
0
0
0
0
0
0
0
0
0
0
0
0
0
0
0
0
0
0
0
0
0
0
0
0
0
0
0
0
0
0
0
0
0
0
0
0
0
0
0
0
0
0
0
0
0
0
0
0
0
0
0
0
0
0
0
0
0
0
0
0
0
0
0
0
0
0
0
0
0
0
0
0
0
0
0
0
0
0
0
0
0
0
0
0
0
0
0
0
0
0
0
0
0
0
0
0
0
0
0
0
0
0
0
0
0
0
0
0
0
0
0
0
0
0
0
0
0
0
0
0
0
0
0
0
0
0
0
0
0
0
0
0
0
0
0
0
0
0
0
0
0
0
0
0
0
0
0
0
0
0
0
0
0
0
0
0
0
0
0
0
0
0
0
0
0
0
0
0
0
0
0
0
0
0
0
0
0
0
0
0
0
0
0
0
0
0
0
0
0
0
0
0
0
0
0
0
0
0
0
0
0
0
0
0
0
0
0
0
0
0
0
0
0
0
0
0
0
0
0
0
0
0
0
0
0
0
0
0
0
0
0
0
0
0
0
0
0
0
0
0
0
0
0
0
0
0
0
0
0
0
0
0
0
0
0
0
0
0
0
0
0
0
0
0
0
0
0
0
0
0
0
0
0
0
0
0
0
0
0
0
0
0
0
0
0
0
0
0
0
0
0
0
0
0
0
0
0
0
0
0
0
0
0
0
0
0
0
0
0
0
0
0
0
0
0
0
0
0
0
0
0
0
0
0
0
0
0
0
0
0
0
0
0
0
0
0
0
0
0
0
0
0
0
0
0
0
0
0
0
0
0
0
0
0
0
0
0
0
0
0
0
0
0
0
0
0
0
0
0
0
0
0
0
0
0
0
0
0
0
0
0
0
0
0
0
0
0
0
0
0
0
0
0
0
0
0
0
0
0
0
0
0
0
0
0
0
0
0
0
0
0
0
0
0
0
0
0
0
0
0
0
0
0
0
0
0
0
0
0
0
0
0
0
0
0
0
0
0
0
0
0
0
0
0
0
0
0
0
0
0
0
0
0
0
0
0
0
0
0
0
0
0
0
0
0
0
0
0
0
0
0
0
0
0
0
0
0
0
0
0
0
0
0
0
0
0
0
0
0
0
0
0
0
0
0
0
0
0
0
0
0
0
0
0
0
0
0
0
0
0
0
0
0
0
0
0
0
0
0
0
0
0
0
0
0
0
0
0
0
0
0
0
0
0
0
0
0
0
0
0
0
0
0
0
0
0
0
0
0
0
0
0
0
0
0
0
0
0
0
0
0
0
0
0
0
0
0
0
0
0
0
0
0
0
0
0
0
0
0
0
0
0
0
0
0
0
0
0
0
0
0
0
0
0
0
0
0
0
0
0
0
0
0
0
0
0
0
0
0
0
0
0
0
0
0
0
0
0
0
0
0
0
0
0
0
0
0
0
0
0
0
0
0
0
0
0
0
0
0
0
0
0
0
0
0
0
0
0
0
0
0
0
0
0
0
0
0
0
0
0
0
0
0
0
0
0
0
0
0
0
0
0
0
0
0
0
0
0
0
0
0
0
0
0
0
0
0
0
0
0
0
0
0
0
0
0
0
0
0
0
0
0
0
0
0
0
0
0
0
0
0
0
0
0
0
0
0
0
0
0
0
0
0
0
0
0
0
0
0
0
0
0
0
0
0
0
0
0
0
0
0
0
0
0
0
0
0
0
0
0
0
0
0
0
0
0
0
0
0
0
0
0
0
0
0
0
0
0
0
0
0
0
0
0
0
0
0
0
0
0
0
0
0
0
0
0
0
0
0
0
0
0
0
0
0
0
0
0
0
0
0
0
0
0
0
0
0
0
0
0
0
0
0
0
0
0
0
0
0
0
0
0
0
0
0
0
0.00074087
0
0
0
0
0.000106008
0
0.00143127
0
0
0
0
0
0
0
0
0.000845859
0
0.0118043
0
0
0
0
0.0100054
0
0
0
0
0
0
0
0
0
0
0
0
0
0
0.00214736
0
0
0.0129485
0.00590255
0
0
0
0.00582336
0.00684104
0
0
0
0
0.0145661
0
0
0
0
0.00830307
0
0
0
0
0
0
0
0
0
0
0
0.00760011
0
0
0
0
0
0.00372801
0
0
0
0
0.0252581
0.00315481
0
0
0
0
0.0262145
0
0.0280127
0.0264439
0.00830717
0
0
0
0
0.0263691
0.0202314
0.00895342
0
0
0.0148679
0.0033399
0
0.0260759
0.0256674
0
0
0
0
0
0
0
0
0.0230957
0
0
0
0
0
0
0
0.0162587
0
0.0232598
6.15116e-05
0.00999348
0
0.0054696
0.00259225
0
0
0
0
0
0
0
0
0
0.00332704
0.0259763
0
0
0
0
0
0.00918861
0.0172521
0.00111548
0
0.0298598
0.00913973
0
0.0245298
0
0.00974463
0.0175614
0.0182584
0.019368
0.0174146
0
0.00797595
0.00367949
0.0159874
0.0267679
0.0228364
0
0.0155949
0.00463559
0.0211636
0.0126432
0
0
0.0231758
0
0.00417689
0
0
0.0314221
0
0.0205323
0
0
0
0.0196967
0
0.0121985
0.0130854
0
0
0
0
0.0114339
0.0197686
0.0168344
0
0.0175034
0
0
0
0
0.0246981
0.000886369
0.0164332
0
0
0.0186072
0.0100812
0
0
0
0
0.0244502
0
0
0
0.0216063
0.00673518
0
0.0245779
0.0281318
0.0102472
0.0253194
0.0248139
0.0239065
0.0206973
0
0.0137271
0.0135853
0
0
0.0150669
0.0189895
0.00775205
0.0136364
0.0129605
0.000272929
0.00370667
0
0.0243694
0.00513988
0
0.0227315
0.0144951
0.0127506
0.0160893
0.00981944
0
0
0
0.0149648
0.0124901
0
0
0.0118543
0.000479208
0.0269243
0.0291297
0
0.0269498
0.0257688
0.0210388
0.0249115
0
0.0196705
0.00384775
0.00982052
0.00513965
0
0
0
0.00558752
0.0237861
0
0
0.0232339
0
0.0210921
0.0210763
0.0207413
0.0098611
0
0
0
0.0138362
0
0
0
0
0.033448
0
0.0237821
0.0204422
0
0.0196918
0
0.0107877
0.00232007
0
0.0264026
0.0118152
0.0244762
0.0141765
0.00167954
0
0.0166563
0.01692
0.0244003
0
0.0234787
0
0
0.0134595
0
0.0166706
0
0.00991092
0.0055206
0
0
0
0
0
0.0264649
0.00652308
0.0227873
0.0198752
0.00765305
0.0259891
0.0245952
0.0190882
0
0.0237459
0.00529274
0.00752286
0.0084237
0.0128826
0.000175717
0
0
0
0.0360719
0.022665
0
0
0.00999385
0
0.0286193
0.000609911
0.0266755
0.0156228
0
0
0
0
0.00544019
0
0
0.0086244
0.0244298
0.0132699
0.0211861
0.0272737
0.00862757
0.0249002
0.0180993
0.0199473
0.0181578
0.0129159
0.0223986
0.0167966
0.0125584
0.0143193
0.0168145
0.0043584
0
0
0
0
0
0
0
0
0
0.0317067
0
0
0
0.0271279
0.0201648
0
0.0221872
0.00895224
0.0195486
0.0191377
0.0141343
0.0134206
0
0
0
0
0
0
0
0.00747325
0.0140134
0.00739355
0.0242565
0.0231028
0.0253834
0.0243346
0
0.0207434
0.0165403
0.0154699
0.0156078
0.0177192
0
0.0180214
0
0
0.000255986
0
0
0
0
0
0.00262596
0.0195124
0.00595692
0.0285665
0.0283617
0.0276142
0.0225523
0
0.0219999
0.0143159
0.00908315
0.00986387
0
0.00739823
0.00413208
0
0
0
0
0
0
0
0.00815609
0.0104627
0
0
0
0
0.0290116
0.0238776
0.0269452
0.0215788
0.021012
0.0212282
0.0201164
0.00963365
0
0
0.0134744
0.0137665
0.00140765
0.0125946
0.0102655
0
0.00900054
0
0
0
0
0
0
0.00298371
0.00442184
0.025469
0.0189323
0
0.0203785
0
0
0.0199417
0.0197432
0.0177703
0.0179808
0.0161517
0.0153937
0
0
0
0.0307698
0.0159293
0.0247532
0.0328643
0
0.0303144
0.0277689
0.0174125
0.0172609
0.0224357
0
0.0237278
0.00852505
0
0.0223559
0
0
0.0281067
0.0227692
0
0
0.0223079
0.0270197
0
0
0.0251761
0.0163334
0
0.0271736
0.0165614
0.00621027
0.0226841
0.0193849
0.0188275
0
0.018933
0.00947981
0
0
0
0.00882366
0.0136638
0.0284551
0.0203671
0.0114365
0.0269764
0.0246065
0.0274287
0.0275017
0.0201833
0.0178038
0
0.0216099
0.0045737
0.0178864
0.0137098
0.0180072
0.017022
0.00853305
0
0.00809704
0
0.00675816
0.0012869
0.0332435
0
0.0121008
0.0255085
0.0280354
0.00707055
0
0.0245831
0.017378
0.0237813
0.0198904
0.0246108
0.0133969
0.0191826
0.0134723
0
0.0116562
0
0
0.00744665
0
0
0.0236476
0.0108093
0.0284802
0.0352471
0.0347579
0
0.0337458
0.0229398
0.0272748
0.0272338
0.0152597
0.0159096
0.0206217
0.0181786
0
0.01469
0
0
0
0
0
0
0.0225952
0
0.0318599
0
0.0221628
0.0152183
0.0181041
0.0265207
0.026164
0
0.0223191
0.0120501
0.020806
0.0170505
0.0115298
0.00140377
0
0.00451289
0
0
0.0194013
0
0.0284619
0.0330424
0.0105303
0.00684847
0
0.00187813
0.015113
0.0108858
0
0.0254605
0.0229896
0.0144241
0.022468
0
0.0194374
0.0179185
0
0.0145567
0.00150434
0
0
0.00146487
0.0128014
0.0183458
0.00566492
0
0.0323555
0.0216405
0.0198552
0.0220363
0.0158316
0.0114263
0.015284
0.0102858
0.00805886
0
0.00241328
0.00597762
0
0
0
0
0.0277154
0.0031596
0.0196393
0
0.0298072
0.0252265
0.0122501
0.029272
0.0259762
0.0221621
0.0228233
0.0223242
0.0121456
0.0161133
0
0
0
0
0
0
0.00737046
0
0.0100476
0.00909146
0.0333832
0
0.0318069
0.0329124
0.0142706
0.0321459
0.0272345
0.0305751
0.00701571
0.0181014
0
0
0
0.00647194
0
0
0.0126586
0
0
0.0199863
0.0306271
0.0161515
0
0.0246895
0.0191142
0.0197385
0
0.0142637
0
0
0
0
0.0110154
0.00684042
0.0114008
0.00540902
0
0
0.0312907
0.0164313
0.0337623
0.0310329
0
0.0313544
0
0.0292466
0.0239406
0.0276807
0.0275361
0.0268131
0.014414
0
0.00428223
0.00430144
0
0
0.0225747
0.0173813
0.0240143
0.0172191
0.0261564
0.0179555
0.0321215
0.0253766
0
0.0283471
0.0254696
0.0132103
0.0267956
0.0278871
0
0.0265494
0.0240284
0.010002
0.0219342
0.0191664
0.0163129
0.0111786
0.0122402
0
0
0
0
0.00959315
0.0161057
0
0.0315273
0.0328416
0
0
0.0308541
0.0271913
0.0187699
0.0248719
0.0226028
0.0143437
0.0197329
0.0139794
0
0.000938958
0.0140088
0.0200641
0.00967397
0.0266915
0
0
0.0287444
0
0.0301546
0.00989605
0.00643181
0.0266663
0
0.0145243
0.0297388
0
0.0244055
0.0192849
7.76167e-06
0.0139023
0.0192606
0.010533
0.00929079
0.00363979
0.0120208
0
0.00184347
0.0287269
0
0
0
0.0228271
0.00931151
0.00248357
0
0.024575
0.0132208
0.00811304
0
0.0254014
0.0249531
0.0153571
0.00661592
0.010036
0.00444394
0
0
0.0195985
0
0
0
0.0282068
0.0340147
0.00704549
0.026911
0.0286783
0.0189027
0.0238695
0
0.0223119
0.022129
0.0195219
0.0195255
0.0193494
0.0182751
0
0.0143366
0
0.0177264
0.00451156
0.000104487
0.0175092
0
0.0237677
0.0279956
0.0305436
0.0266767
0.0313672
0.00522202
0.0106807
0.025419
0.0239802
0.0242664
0.0159032
0.0150587
0.0184081
0.00873229
0
0.00716263
0
0
0.0258495
0.0186086
0
0.0256925
0.0226143
0.02321
0.0232211
0.0196088
0.0155395
0.0201186
0.0180253
0.0190871
0.0175229
0.016159
0.0114928
0.00843027
0
0
0
0.0235172
0.0251413
0
0.014964
0
0
0.031127
0.0133825
0
0.0194209
0.00647271
0
0.0262088
0.0253963
0.020593
0.0138195
0.0127863
0.016786
0.0158256
0
0.00670541
0
0
0
0.00573273
0.0175633
0
0.0254377
0.0145669
0
0
0.0268776
0.0176347
0.0102768
0.0327837
0.0289125
0.0269748
0.0197896
0.0274335
0.0238878
0.0223863
0.019869
0.0265672
0.0262513
0.0242095
0.0160134
0.000185784
0.0146283
0.00929988
0
0.00608513
0
0
0.0369865
0
0.014813
0.026774
0.0231169
0.0310511
0.0311944
0.0279459
0
0.0286494
0.0286577
0.0279975
0.0271559
0.0141471
0.0209986
0.0175231
0
0
0
0.00826562
0.028977
0.000790515
0.031766
0.0257357
0.00456521
0
0.0149029
0.0323304
0.0252638
0.0140546
0.0218764
0.0247685
0.0166716
0.0174797
0
0.0158549
0.0105183
0.0118612
0
0
0.0139043
0.00986936
0.0303361
0.00643326
0
0
0.0303343
0.0273622
0.0210961
0.0113809
0.027615
0.0189829
0.0209548
0.0230175
0.0196751
0.00354272
0
0
0
0
0.0286093
0.0172243
0
0.0042155
0.0143257
0.0333872
0.0343619
0.00259255
0.0228749
0.0171136
0
0.0297308
0.0277744
0.0254543
0.0227643
0.0213846
0.0166955
0.0093221
0.00257973
0
0.0107457
0
0
0.0196999
0.0204468
0.0354136
0.0315281
0.0276084
0.0158613
0.014217
0.0254838
0.0112449
0.0259781
0.022923
0.0244921
0.0168008
0.0161081
0.0224223
0.0101129
0.0108288
0.00498591
0
0.0164485
0.00159134
0.0323388
0.0299821
0
0.0268782
0.00350849
0.0258992
0.0181202
0
0.0279676
0.0275396
0.0144194
0.0271896
0
0.0255748
0.02175
0.0114549
0
0.00816277
0.00255915
0
0
0
0
0
0
0.026308
0
0.0115142
0.0341802
0.0335675
0.0305385
0
0.0276016
0.0267884
0.00413728
0.0275841
0.0263322
0.0237805
0.0213906
0.0151222
0.0227726
0.0102897
0.00857102
0.00541816
0
0.00108485
0.026793
0
0
0
0.0155293
0.0324519
0.0350963
0.0193928
0.0311737
0.0311535
0.0288344
0.0195766
0.0270829
0.0256734
0.0256335
0.0177116
0.025549
0.0148777
0.0182143
0.0151965
0.00800174
0.0204559
0.014927
0.0297611
0.024192
0.0366754
0.0345898
0.0179894
0.0245664
0.0190208
0.024352
0.0253366
0.0140783
0.018895
0.0134403
0
0
0.00607553
0
0
0.0086302
0.0119189
0.0362681
0.00991041
0.0343621
0.0165541
0.0319021
0.0313549
0.0285096
0.0250975
0.0222908
0.0187869
0.0183849
0.0223484
0
0.0201075
0.0190007
0.0190516
0.00345255
0.00359549
0.00653407
0
0
0.0236236
0.0182552
0.0172261
0.0307301
0.0278724
0.0289705
0.0296589
0.0253458
0.0299419
0.0292997
0.0260378
0.0198774
0.0190734
0.0238664
0.017681
0.011602
0
0.0151294
0.0179428
0.000487838
0
0
0.0130383
0.0287922
0
0.0278553
0.0227158
0
0.0169492
0.0302444
0.0227598
0.0201423
0.0275903
0.0269191
0.0260083
0.00844088
0.0185846
0.0174596
0.00262879
0.00937574
0
0
0
0
0
0.0244305
0.0114747
0.0160758
0.0200635
0.0353138
0.0331367
0.0307055
0.0218449
0
0.0313667
0.0277782
0.013082
0.0290509
0.0254643
0.0245976
0.023846
0.0252175
0.018826
0.0150867
0
0.0138899
0.0122832
0
0.0050973
0
0
0.0250147
0.0189836
0.00786239
0.0325481
0.0314454
0.012525
0.0206137
0.0241621
0.0243123
0.0145999
0.0260092
0.018723
0
0.0191836
0
0
0
0
0.0110641
0.0372291
0
0.0243718
0.0282779
0.0326723
0.0346689
0.0327463
0.0281001
0.0315033
0.0311277
0.0306563
0.0266775
0.0154161
0.027372
0.0261082
0.0248472
0.0114076
0
0
0
0
0.029249
0
0
0.0309622
0.026829
0.0250723
0.018679
0.030879
0.0302505
0.0242531
0.0254234
0.0242966
0.0219731
0.0135253
0.0166063
0
0
0.00751013
0.010684
0.0185624
0.0256163
0.0193361
0.01821
0.0370742
0.0201125
0.0334077
0.0316797
0.0290261
0
0.0302296
0.0273956
0.0224658
0.018842
0.0166136
0
0
0.0216111
0.00715833
0
0
0.0161188
0.0256579
0.0296182
0.0260519
0
0.00248452
0.0320436
0.0317161
0.0244815
0.0131356
0.0240489
0.0132097
0.0210792
0.0221011
0.0223428
0
0.0167487
0.00487695
0
0
0.01633
0.024653
0
0.0175603
0
0
0.0384481
0.0159429
0.00679566
0
0.0330931
0.0303394
0
0.0159755
0
0.0330821
0.0284441
0.0148101
0.0280549
0.0254051
0.0222475
0
0.0013955
0.0231641
0
0.00499413
0
0.0232426
0
0.0254091
0.0150424
0.0110858
0.00885096
0.00178197
0.0326033
0
0.0277237
0.0262283
0.029171
0.00677959
0.0250391
0.0239194
0.0021385
0
0.0211388
0
0
0.0246874
0
0.00863853
0.0210722
0.00949433
0.0250168
0.0304386
0.000590871
0.00589248
0.0369621
0.00925358
0.012063
0.00839175
0.0300732
0.0264682
0.0144428
0.0331533
0.0290369
0.0220199
0.0264186
0.0186199
0.0253327
0.0240836
0.0240271
0.021302
0.0154978
0.0119924
0
0.0125794
0
0
0
0
0
0
0
0
0
0
0
0
0
0
0
0
0
0
0
0
0
0
0
0
0
0
0
0
0
0
0
0
0
0
0
0
0
0
0
0
0
0
0
0
0
0
0
0
0
0
0
0
0
0
0
0
0
0
0
0
0
0
0
0
0
0
0
0
0
0
0
0
0
0
0
0
0
0
0
0
0
0
0
0
0
0
0
0
0
0
0
0
0
0
0
0
0
0
0
0
0
0
0
0
0
0
0
0
0
0
0
0
0
0
0
0
0
0
0
0
0
0
0
0
0
0
0
0
0
0
0
0
0
0
0
0
0
0
0
0
0
0
0
0
0
0
0
0
0
0
0
0
0
0
0
0
0
0
0
0
0
0
0
0
0
0
0
0
0
0
0
0
0
0
0
0
0
0
0
0
0
0
0
0
0
0
0
0
0
0
0
0
0
0
0
0
0
0
0
0
0
0
0
0
0
0
0
0
0
0
0
0
0
0
0
0
0
0
0
0
0
0
0
0
0
0
0
0
0
0
0
0
0
0
0
0
0
0
0
0
0
0
0
0
0
0
0
0
0
0
0
0
0
0
0
0
0
0
0
0
0
0
0
0
0
0
0
0
0
0
0
0
0
0
0
0
0
0
0
0
0
0
0
0
0
0
0
0
0
0
0
0
0
0
0
0
0
0
0
0
0
0
0
0
0
0
0
0
0
0
0
0
0
0
0
0
0
0
0
0
0
0
0
0
0
0
0
0
0
0
0
0
0
0
0
0
0
0
0
0
0
0
0.00598455
0
0
0
0
0
0
0
0
0
0
0
0
0
0
0
0
0
0
0
0
0
0
0
0.0018461
0
0
0
0
0
0
0
0
0
0
0
0.00779442
0
0
0
0
0.0126338
0
0
0
0
0
0
0.00535324
0
0
0
0
0
0
0
0
0
0
0
0
0
0
0
0
0
0
0
0
0
0
0
0.0239787
0
0
0
0
0
0
0
0
0
0
0
0
0
0
0
0
0
0
0
0
0
0
0
0
0
0
0
0
0
0
0
0
0
0
0
0
0
0.0171639
0
0
0
0
0
0
0
0
0
0
0
0
0
0
0
0
0
0
0
0
0
0.00838776
0
0
0
0
0
0
0
0
0
0
0
0
0.0136146
0
0
0
0
0
0
0
0
0
0
0
0
0
0
0
0
0
0
0
0
0
0
0
0
0.00837042
0
0
0
0
0
0
0
0
0
0
0
0
0
0
0.00886264
0.00118395
0
0
0
0
0
0
0
0
0
0
0
0
0
0
0.00248893
0
0
0
0
0
0
0
0
0
0
0
0
0
0
0
0
0
0
0.0119378
0
0
0.000284025
0
0
0
0
0
0
0
0
0
0.0249156
0
0.0107153
0.0208598
0.00749105
0
0.0134228
0
0
0.00192107
0
0
0
0
0
0
0
0
0
0
0
0.0153542
0
0
0.0170497
0.00381786
0.00930528
0
0
0.00196264
0
0
0
0
0
0
0
0.0139196
0.00158557
0
0
0.00646324
0
0
0
0
0
0.00813984
0
0
0
0
0
0
0
0
0
0
0
0
0
0
0
0
0
0
0
0
0
0.014653
0.0112375
0
0
0.0106115
0.000871592
0.00888204
0
0
0
0
0
0
0
0
0
0
0
0
0
0
0
0
0
0
0.019843
0
0.00319087
0
0.00767583
0.015669
0.00507085
0.0099189
0
0
0
0
0
0
0
0
0
0
0
0
0
0.00917306
0.00972328
0.0194778
0.00177427
0.0166852
0.00149045
0
0
0
0.00790075
0
0
0
0
0.00781217
0
0
0
0
0
0
0
0
0
0
0
0
0
0
0
0.0122343
0.00765383
0.00245948
0.0133336
0.00594042
0
0
0
0
0
0
0
0
0
0
0
0
0
0
0
0
0
0
0
0
0.00543436
0
0.0221811
0
0
0
0
0
0
0
0
0
0
0
0
0.00530094
0.00647649
0.0114627
0
0.0021105
0.0104052
0
0.00501007
0
0
0
0
0
0
0
0
0
0
0
0
0
0
0.00572237
0.0144796
0.017953
0
0
0
0
0
0.0072857
0
0
0
0
0
0
0
0
0
0
0
0
0
0
0
0.0214222
0
0.0177525
0.0166363
0.00731824
0.00302282
0
0
0
0
0
0
0
0
0
0
0
0
0.0110561
0.0130433
0
0
0.00883879
0.00947342
0.000573183
0
0
0
0
0
0
0
0
0
0
0
0
0.0124673
0
0.00979869
0.000232619
0.00758691
0
0
0
0.00879059
0
0
0
0
0
0
0
0
0
0
0
0
0
0
0
0
0
0.00116751
0
0.0130111
0.0112788
0.00243249
0
0
0
0
0
0
0
0
0.000907355
0
0
0
0
0
0
0
0
0
0
0
0.0132666
0
0.00129634
0
0
0
0
0
0
0
0
0
0
0.00106748
0
0
0.0156925
0.00247364
0
0.00503992
0
0
0
0
0
0
0
0
0
0
0
0
0
0.0134966
0
0
0.0187839
0
0.00434269
0
0.0136646
0.0175889
0.0051346
0.00183954
0.00615342
0
1.54819e-05
0
0
0
0
0
0
0.000714398
0
0
0
0
0.0100828
0
0
0.0133194
0
0
0.00533765
0
0
0
0
0
0
0
0
0
0
0
0
0
0
0
0
0
0
0
0.00725316
0
0
0.00550186
0.0114724
0
0
0
0
0
0
0
0
0
0
0
0
0.0195398
0.0203629
0
0.0113583
0.0103692
0
0
0.00649522
0.00659458
0
0
0
0
0
0
0
0
0
0
0
0
0.0211119
0
0
0.0155065
0
0
0.0182318
0
0
0
0.000768342
0
0
0
0
0
0
0
0.00477067
0
0
0
0.011903
0.0171659
0.0228452
0.00246401
0
0.0169917
0
0.00643787
0
0
0
0
0
0
0
0
0
0.00824677
0
0
0
0
0.00621697
0.00200168
0
0
0.00780467
0.00946059
0.0028936
0
0
0
0
0
0
0
0.0300613
0
0
0
0.0190974
0.0144553
0.02363
0
0
0
0
0
0.00426277
0
0
0
0
0
0
0
0
0
0
0
0
0.0223765
0
0
0.0246335
0.0212425
0.010773
0
0.00036478
0
0
0
0
0
0
0
0
0
0
0
0.0098464
0.0202869
0.0200325
0.0206411
0.0205271
0.0111517
0.0122244
0.0185204
0.0169595
0.0158734
0.000299933
0
0.00170355
0
0.00149139
0
0
0
0
0
0
0
0
0
0
0
0
0
0
0
0
0
0
0
0
0
0
0.00186314
0.0138769
0.0208926
0.000871242
0
0.00467019
0.00424401
0
0
0
0.00247159
0
0
0
0
0
0
0.0113057
0
0.0202207
0.00608045
0
0
0.00490196
0.00694974
0
0
0
0
0
0
0
0
0
0
0
0
0
0
0.0230932
0.0164691
0.00622052
0
0
0
0.00317212
0.0109351
0.0114296
0
0
0
0
0
0
0
0
0
0
0
0
0.000222053
0
0
0
0
0
0
0.0152411
0.000725997
0
0
0
0
0
0
0
0
0
0
0
0
0
0.000518613
0.0159826
0.0226301
0.0104846
0
0
0
0
0
0
0
0
0
0
0
0
0
0
0
0
0
0.0120384
0
0.0154537
0.0182743
0.0129759
0.00826008
0.00188302
0.00456289
0
0
0
0
0
0
0
0
0
0
0
0
0
0
0.0217878
0
0
0
0
0
0.0233243
0.0061897
0
0
0
0.0172901
0
0
0.00149315
0.00843427
0
0
0.00283578
0.00100586
0
0
0
0
0
0
0.0222808
0.0204767
0.0129365
0
0.017602
0.00559557
0
0
0
0.00135555
0
0.00714327
0
0
0
0
0
0
0
0
0
0
0
0
0
0
0
0.014865
0.0248922
0
0
0.0106022
0.0119163
0
0
0.00215617
0
0
0
0
0
0
0
0
0
0.00643904
0
0
0
0.0169277
0.0126897
0.0188452
0.00656249
0
0.0213857
0.00486945
0.0112067
0.0131153
0.0120441
0.00362553
0
0
0
0
0
0
0
0
0
0
0
0.0105857
0
0.00402979
0
0.0266255
0.00319233
0
0
0
0
0.0161115
0.00844378
0.0200718
0.00196352
0
0.00190788
0.0068365
0
0
0
0
0
0
0.0106821
0
0.00839872
0.0121806
0.00916719
0.0140021
0.0121428
0
0.00471118
0
0
0
0
0
0
0
0
0
0
0.00128156
0
0.0261607
0.0100205
0
0.00431998
0.0164216
0.0164311
0
0
0
0
0
0
0
0
0
0
0
0.00951278
0.000337383
0
0
0.0253242
0
0
0.014066
0.00524926
0
0
0
0
0
0
0
0
0
0.0167227
0.0139111
0
0.0230889
0.0136697
0
0.0035852
0.0208121
0.0172285
0
0.00499307
0
0.000158328
0
0
0
0
0
0.0219441
0
0.0261233
0.0234899
0
0
0.0137393
0
0
0.00179405
0.00812811
0
0
0
0
0
0
0
0
0.0195491
0
0
0
0.00835314
0
0
0.0105839
0.000164225
0
0.00501411
0
0.0127155
0.00327839
0
0.0102877
0.00846708
0.00617421
0.00344396
0.00226307
0
0
0
0
0
0
0
0
0
0
0.00982785
0
0.00797132
0.012127
0.0205194
0.017347
0.00867725
0.0139047
0.0190692
0.0153542
0.00653522
0
0
0
0
0
0.0161229
0.0140169
0
0
0.0223834
0.017661
0
0.0219111
0.0196918
0.0144365
0.0150656
0.0149733
0.00920435
0
0
0.011822
0.000682839
0
0
0
0
0
0
0.00384672
0.0224303
0.00136716
0
0
0.0120611
0
0.0212417
0
0.0144899
0.0113098
0
0
0
0
0
0
0.0282437
0.0252486
0.00467378
0.0234768
0.0170429
0.0197286
0.0190003
0
0.00332056
0
0
0
0
0
0
0
0
0
0
0
0
0.00339395
0
0
0.0128642
0
0
0.00712066
0
0.00254113
0.019721
0.0180366
0
0
0
0
0
0
0
0
0.0140783
0
0
0
0
0
0
0
0.00354537
0.0191253
0.0201016
0.012878
0
0.0179569
0.0137755
0.0134717
0
0.0109931
0
0
0
0
0
0
0
0
0.0260045
0.0072437
0.0294636
0
0
0
0
0.0144945
0.0180452
0.00551892
0.0149748
0.00760167
0
0.00977827
0.00684617
0
0
0
0
0
0
0
0
0
0
0
0
0.000666243
0.0096744
0
0.0185013
0.015569
0.0115267
0.0192403
0.00964736
0.0179488
0.0151598
0.0139101
0.0127029
0
0
0
0
0
0
0
0
0.0197088
0.0144869
0
0
0
0
0.00800219
0.00465404
0.0159621
0.0127117
0
0
0
0
0
0
0
0
0
9.55127e-05
0.0166223
0.000743736
0.0234149
0.0243269
0.00762442
0.00314404
0.0231332
0.0134357
0.0193425
0.0124456
0.0115292
0.017131
0
0
0.00740533
0.00266033
0
0.00910539
0
0
0
0
0
0
0
0
0.0269414
0.00217715
0
0.0139777
0
0
0.0271534
0
0
0.0248703
0.0177396
0
0
0
0.00439703
0
0.00342434
0
0
0
0
0
0
0
0.000609822
0.000800521
0
0.000948677
0.0183966
0.0191134
0.0227651
0.0179649
0.00565242
0
0
0
0
0
0
0
0
0.00822798
0
0
0.0152775
0
0.0234565
0
0.0206926
0.0144774
0
0.00912941
0.00688256
0
0
0
0
0
0.0012252
0
0
0
0
0
0.00860581
0
0.0287884
0
0
0
0.025468
0.0232352
0
0
0.0174951
0
0.0175654
0
0
0
0.00620818
0.00844313
0.0128549
0.000498622
0
0
0
0
0
0
0
0
0
0
0
0
0.00870184
0
0.0199014
0
0.00494197
0.00547828
0.0225715
0.0204773
0.0198556
0.0196899
0.01552
0.0150252
0.00647844
0
0
0
0
0
0
0
0
0
0
0.0292299
0.017529
0.00365563
0.0145955
0.0129754
0.0197639
0.0130964
0.0112674
0
0.00507682
0
0
0
0
0
0.00183309
0.00169955
0.00280386
0.005278
0.0262536
0.0102549
0.0247131
0.0206653
0.0114287
0.0222188
0.0188405
0.0177239
0.0157148
0.0103268
0.0131831
0.0095268
0
0
0
0.0012893
0
0
0
0
0
0
0
0
0
0
0.0150143
0
0.0138379
0.0214301
0.017543
0.015485
0
0
0.003108
0.00334482
0
0
0
0
0
0
0.0158466
0.0124942
0
0.0118668
0
0.00532428
0.00620654
0.0183861
0
0
0.0231462
0.02133
0.0180984
0.0196427
0.0165686
0
0
0
0
0
0.0288897
0.0143408
0
0.00268708
0.0169533
0.0227205
0.0206227
0.000118171
0.0177816
0
0
0.0164189
0.0106862
0
0
0
0
0
0
0.00782957
0
0
0
0.0185851
0
0
0
0.0227598
0.0127995
0.0141126
0.0158789
0.00517355
0
0.00098674
0
0
0
0
0
0
0.0010038
0
0
0.0161831
0.0237668
0.011364
0.0153892
0.0145548
0
0.0120442
0
0
0.0061057
0
0
0
0
0.018767
0.00741744
0
0
0.00254131
0
0
0.0203641
0.00984737
0
0.0189101
0.0109484
0
0.0161548
0.00355738
0
0
0
0
0
0
0
0
0
0
0
0
0
0
0
0
0.0122547
0.00366254
0.0107931
0
0
0.0206331
0.00400605
0
0
0.0148832
0
0
0
0
0
0
0
0.00121459
0.0100954
0.0154644
0.014308
0
0.00201252
0.0154463
0.0147557
0.015048
0.0215532
0.000705508
0
0.00916554
0.0126109
0.0108272
0.00505819
0.00352984
0.000899142
0
0
0
0.00235799
0
0
0.00176497
0
0.0282508
0.00738218
0
0.0202683
0.0179865
0.0142149
0.0176156
0.0135068
0.0103672
0
0.0094738
0.00146736
0
0.0119051
0
0
0
0.00817642
0
0.0191434
0
0
0
0.0172149
0.00423471
0.0135553
0
0.00540344
0
0.00715391
0
0
0
0
0
0
0
0
0
0
0.0196233
0.0325586
0
0.0167292
0.00604069
0.0031963
0.00614643
0
0
0
0.0146782
0.0125592
0.0174963
0.0206973
0
0
0
0
0
0
0
0
0
0
0
0
0
0
0
0
0
0
0
0
0
0
0
0
0
0
0
0
0
0
0
0
0
0
0
0
0
0
0
0
0
0
0
0
0
0
0
0
0
0
0
0
0
0
0
0
0
0
0
0
0
0
0
0
0
0
0
0
0
0
0
0
0
0
0
0
0
0
0
0
0
0
0
0
0
0
0
0
0
0
0
0
0
0
0
0
0
0
0
0
0
0
0
0
0
0
0
0
0
0
0
0
0
0
0
0
0
0
0
0
0
0
0
0
0.026424
0
0
0
0
0.0160331
0
0
0
0.0260056
0
0
0
0
0
0.0309725
0.00415061
0.000573553
0
0.0195247
0
0.00562559
0
0.0107145
0
0.0177666
0.0308351
0.0304012
0.0289676
0.023574
0
0.00592926
0.0191989
0
0.023704
0.0266279
0.0239061
0.0209038
0
0
0.0333087
0.00473802
0
0.0303832
0.00450107
0
0
0.0388386
0.0225321
0
0
0.00923162
0
0.0120075
0.017632
0
0.031062
0.0228473
0.0270818
0.0112871
0
0.0372155
0.010861
0.0331858
0.0294642
0
0.0181286
0.0158919
0
0
0.0164279
0.0129099
0
0
0
0.0394939
0
0
0.0133273
0
0.0247387
0.0165235
0.0117965
0.0273968
0.02456
0.0174854
0.0321051
0
0.0260147
0.0200035
0
0.0088663
0
0.015335
0.00378622
0.0237338
0.0214893
0.0116271
0.0326633
0.0326216
0.00625595
0.0270973
0.0328882
0.0339515
0.0309597
0.0271698
0.0241505
0.0177932
0.0208584
0.0283496
0.0220532
0
0
0.0186545
0.0157214
0
0.028993
0.0356409
0.0328176
0.0206611
0.0154123
0.0311114
0
0
0.028253
0.0361292
0.0208882
0.0219458
0.0198597
0.0209348
0
0.0245657
0.00321944
0.000699867
0.0350758
0.0340532
0.00558256
0.0189919
0.0305965
0.0283364
0.022609
0.0101063
0
0.00366413
0.0232228
0.0186978
0.0272825
0.010125
0.0232026
0.0230569
0.0245942
0.0371069
0.0335233
0
0
0.0276175
0.000477636
0.0321117
0.0305305
0.0280278
0.00706841
0
0.0225772
0
0.0389704
0.0279273
0.0304475
0.037676
0.0349673
0.0318727
0.015687
0.0276343
0.011066
0
0
0.0140046
0.0229209
0.0380695
0.02948
0.034209
0.0339513
0.0114269
0.0186278
0.0233241
0.0193126
0.0208701
0.0237647
0.0317589
0.0394362
0.0350602
0.0372765
0.0260182
0.0345126
0
0.028112
0.0293076
0.027521
0.0121855
0.0181612
0.0223948
0
0.03653
0.0349919
0
0.0322179
0.0251941
0.0294143
0
0.0257865
0.0165659
0
0.0209799
0.0283993
0.0190997
0.0211478
0.0337803
0.0023955
0.030941
0.0144783
0.029978
0.0228084
0.0254912
0.024196
0.0230936
0.0380594
0.00798476
0.0315037
0.0359342
0.0319856
0.0280952
0.0177344
0.0246105
0.0184544
0.0230819
0.0199977
0.020581
0
0.0154583
0.0398484
0.0236779
0.0341695
0.0310649
0.0362706
0.018226
0
0.0338949
0.0300569
0.0283938
0.0193922
0.0218922
0.0106616
0.00346158
0
0
0.0153958
0.0155913
0.0201487
0.00304394
0.00980427
0.0233435
0.0321637
0.0314241
0.0215619
0.0132727
0.0132534
0.0282942
0.0220504
0.0244488
0.022382
0.0179773
0.0195154
0.0173751
0
0.0268941
0.0389588
0.0293403
0.0317936
0.0383054
0.00985898
0.0365639
0.0355871
0.00292725
0.0296397
0.0286941
0
0.0323825
0.0292151
0.031209
0.0323615
0.0312114
0.0230151
0.0294038
0.0293285
0.02926
0.0149463
0.018044
0.0233104
0.0253812
0.0214664
0.012936
0
0
0.0313524
0.0146477
0.0334437
0.00688857
0.0352378
0.023249
0.0316737
0.0325047
0.0319879
0.0130778
0
0.0154018
0.0269953
0.0224453
0.0186913
0.0247903
0.0167256
0.00421256
0.0148751
0
0
0.0297754
0.0307469
0.0372446
0.00915013
0.0347386
0.00101273
0.0305358
0.0322802
0.0167315
0.0289246
0.0294797
0.028989
0
0.0227511
0.017012
0.0229261
0.0202765
0.0203749
0.0225114
0.0200514
0.00866216
0
0
0
0
0.00790433
0.0331611
0.0091829
0.0362153
0.0336622
0.0289732
0.032826
0.0345224
0.0315177
0.0289097
0.0119078
0.0239673
0.0275385
0
0
0.0240021
0.0265496
0.0209964
0.0225351
0.017166
0
0.0109787
0.0281278
0.036114
0.00760512
0.0118523
0.0320911
0.0271096
0.0211082
0.0357772
0.0281862
0.0313424
0.0336915
0.0336218
0
0.0291915
0
0.0293876
0.0300262
0.0295127
0.0264031
0.0241653
0.0216895
0.0139404
0.0413934
0.00686984
0.0227781
0.0387419
0.0308293
0.0359419
0.0303207
0.0243713
0.0343351
0.0341171
0.0340515
0.0292981
0.030643
0.0193787
0.0289735
0
0.0216075
0.012838
0.0130701
0.0160818
0.0106436
0
0.00771954
0.0373721
0.036747
0.0372861
0.036959
0.0287746
0.0350105
0.0290434
0.0342425
0.0339292
0.0333602
0.0335502
0.0335848
0.0328157
0.0316402
0.0309534
0.0281475
0.028144
0.0281753
0.0246107
0.020185
0.0176896
0.0125493
0
0
0.0278512
0.0161271
0.0382917
0.0381087
0.0262058
0.0359869
0.0260995
0.0337194
0.0325795
0.0334184
0.0326801
0.0201731
0.0319563
0.0274371
0.0311766
0
0.0130709
0.0236137
0.0175783
0.00924939
0.0399176
0.0381707
0.0196937
0.03577
0.0287838
0
0.0326975
0.0176555
0.0209771
0.0292017
0.0283368
0.0258783
0.025042
0.0128883
0.00841322
0.0302403
0.0379993
0.0341215
0.0268456
0.0347449
0.0347051
0.0320609
0.0314074
0.0156962
0.0304877
0.0296762
0.0274989
0.0061113
0.0249894
0.0203782
0.016179
0.0110026
0.0113997
0.000316571
0.0322787
0.0247811
0.0279195
0.0355758
0.0349886
0.0329337
0.0307698
0.0284697
0.0293544
0.0286634
0.0284122
0.0275356
0.027773
0.0265132
0.0243964
0.0216894
0.0152338
0.0127931
0
0.0184947
0.0263349
0.00258288
0.0378661
0.0377333
0.0367687
0.0310581
0.0362782
0.0359759
0.0357541
0.0355654
0.0331237
0.0331059
0.0322156
0.0307717
0.0131472
0.0301743
0.0306403
0.0182249
0.0284099
0.0267432
0.00326208
0.0211676
0.0107538
0.0173228
0
0
0.03635
0.0197342
0.0339426
0.00632116
0.0321549
0.0346241
0.0307327
0.0342989
0.0299976
0.0322732
0.0296564
0.0274278
0.0287054
0.0233976
0.0167857
0.0120271
0.0109133
0.0235988
0.0352425
0.0330057
0.0280273
0.0155215
0.0132079
0.0162859
0.0319791
0
0
0.0273938
0.032477
0.0309674
0.0308398
0.0225702
0.0196571
0.0268818
0.0244417
0.0215073
0
0.0115648
0.0314731
0.0318757
0.0370538
0.0370382
0.0123117
0.0364383
0.0350834
0.0345436
0.0343713
0.0348996
0.033761
0.024914
0
0.0271235
0.00384126
0.0268858
0.0263093
0.0239795
0.0224148
0.00131504
0.0180392
0.0142079
0
0
0.0411009
0.0268281
0.0275903
0.032809
0.0356826
0.0356546
0.0340727
0.0337982
0.0324591
0.0253737
0.018592
0.0303651
0.0284289
0.0264062
0.0246311
0.0176591
0.0134591
0.0103523
0
0.0216936
0.0249765
0.0369637
0.0394205
0.0346502
0.038071
0.0363751
0.0368507
0.0360674
0.00437986
0.0338257
0.0232399
0.0285187
0
0.0251225
0.023777
0.0119222
0
0.0282542
0.0120491
0.00740881
0.0156042
0.0269462
0.0268497
0.0389529
0.0258566
0.0341818
0.0379588
0.0318872
0.0366732
0.0377115
0.0123026
0.0359105
0.012238
0.0352183
0.0333419
0.0335325
0.0256417
0.0276664
0.0330778
0.0244133
0.0226874
0.0202637
0.0305737
0.0305795
0.0298566
0.0244822
0.0188639
0.0179982
0.0144184
0
0.0259836
0.0253324
0.0331522
0.0170154
0.00755971
0.0338673
0.0323877
0.0255979
0.0314662
0.0299026
0.030591
0.0264979
0.0277696
0.020099
0.0213951
0.0248057
0.0202103
0.0107856
0
0.0119226
0
0
0.034615
0.0157143
0.0390224
0.0381326
0.0358128
0.0222519
0.0338813
0.0312414
0.0299643
0.0256162
0.0278528
0.0203104
0.0278824
0
0.0238253
0.0209958
0.025709
0.0198179
0.0384671
0.0403667
0.0117966
0.0244076
0.0278686
0.0294028
0.0349724
0.0348251
0.0347448
0.032729
0.0272325
0.0331163
0.0126012
0.0226884
0.0265913
0.00204171
0.0162626
0.0127243
0.0256847
0.0167427
0.0346802
0.0377625
0.0376737
0.0232825
0.0381649
0.00846841
0.0333652
0.0341099
0.0168377
0.0308355
0.026276
0.0277611
0.0272474
0.0252667
0.0247897
0.0235385
0.0211299
0.0112486
0.0124838
0
0.0155245
0.0400752
0.0398433
0.0370803
0.0365797
0.0355585
0.0341491
0.0346795
0.0318341
0.0324786
0.0288052
0.0214876
0.0256228
0.0254398
0.0150644
0.0406071
0.021631
0.0255247
0.0278423
0.0148124
0
0.0200943
0.00362757
0.00968976
0.0342545
0.0282315
0.0347593
0.0345827
0.0322685
0.0308164
0.0193717
0.0211575
0.021967
0.0138242
0.00642924
0.0320113
0.0392999
0.0202637
0.0383329
0.0381067
0.0372007
0.0354849
0.034276
0
0.0310393
0.0319448
0.00209688
0.0271727
0.0248038
0
0.021539
0.0130475
0.0248104
0.0341737
0.0365837
0.0379569
0.0370666
0.0315688
0.0252568
0
0.0346413
0.0322516
0.0343582
0.0332333
0.0336156
0.031211
0.0272845
0.0264556
0.0244588
0
0
0.0198984
0.0419285
0
0.0371333
0.0341914
0.0384801
0.0138807
0.0282974
0.0255617
0.0355019
0.034685
0.0197827
0.0346393
0.0342434
0.02935
0.0335074
0.00901809
0.0327462
0.0301457
0.0324256
0.0277026
0.0312582
0.0280533
0.0266576
0.0252341
0.0247143
0.0189939
0.0226516
0.020892
0
0.0399557
0.0415614
0.00184635
0.0200427
0.0370487
0.0178255
0.0355998
0.03504
0.035103
0.0315284
0.0316095
0.0310794
0.0294506
0.0303238