/*--------------------------------*- C++ -*----------------------------------*\
| =========                 |                                                 |
| \\      /  F ield         | OpenFOAM: The Open Source CFD Toolbox           |
|  \\    /   O peration     | Version:  v1906                                 |
|   \\  /    A nd           | Web:      www.OpenFOAM.com                      |
|    \\/     M anipulation  |                                                 |
\*---------------------------------------------------------------------------*/
FoamFile
{
    version     2.0;
    format      ascii;
    class       scalarField;
    location    "2.83/lagrangian/coalCloud1";
    object      YH2O(g);
}
// * * * * * * * * * * * * * * * * * * * * * * * * * * * * * * * * * * * * * //


53638
(
0
0
0
0
0
0
0
0
0
0
0
0
0
0
0
0
0
0
0
0
0
0
0
0
0
0
0
0
0
0
0
0
0
0
0
0
0
0
0
0
0
0
0
0
0
0
0
0
0
0
0
0
0
0
0
0
0
0
0
0
0
0
0
0
0
0
0
0
0
0
0
0
0
0
0
0
0
0
0
0
0
0
0
0
0
0
0
0
0
0
0
0
0
0
0
0
0
0
0
0
0
0
0
0
0
0
0
0
0
0
0
0
0
0
0
0
0
0
0
0
0
0
0
0
0
0
0
0
0
0
0
0
0
0
0
0
0
0
0
0
0
0
0
0
0
0
0
0
0
0
0
0
0
0
0
0
0
0
0
0
0
0
0
0
0
0
0
0
0
0
0
0
0
0
0
0
0
0
0
0
0
0
0
0
0
0
0
0
0
0
0
0
0
0
0
0
0
0
0
0
0
0
0
0
0
0
0
0
0
0
0
0
0
0
0
0
0
0
0
0
0
0
0
0
0
0
0
0
0
0
0
0
0
0
0
0
0
0
0
0
0
0
0
0
0
0
0
0
0
0
0
0
0
0
0
0
0
0
0
0
0
0
0
0
0
0
0
0
0
0
0
0
0
0
0
0
0
0
0
0
0
0
0
0
0
0
0
0
0
0
0
0
0
0
0
0
0
0
0
0
0
0
0
0
0
0
0
0
0
0
0
0
0
0
0
0
0
0
0
0
0
0
0
0
0
0
0
0
0
0
0
0
0
0
0
0
0
0
0
0
0
0
0
0
0
0
0
0
0
0
0
0
0
0
0
0
0
0
0
0
0
0
0
0
0
0
0
0
0
0
0
0
0
0
0
0
0
0
0
0
0
0
0
0
0
0
0
0
0
0
0
0
0
0
0
0
0
0
0
0
0
0
0
0
0
0
0
0
0
0
0
0
0
0
0
0
0
0
0
0
0
0
0
0
0
0
0
0
0
0
0
0
0
0
0
0
0
0
0
0
0
0
0
0
0
0
0
0
0
0
0
0
0
0
0
0
0
0
0
0
0
0
0
0
0
0
0
0
0
0
0
0
0
0
0
0
0
0
0
0
0
0
0
0
0
0
0
0
0
0
0
0
0
0
0
0
0
0
0
0
0
0
0
0
0
0
0
0
0
0
0
0
0
0
0
0
0
0
0
0
0
0
0
0
0
0
0
0
0
0
0
0
0
0
0
0
0
0
0
0
0
0
0
0
0
0
0
0
0
0
0
0
0
0
0
0
0
0
0
0
0
0
0
0
0
0
0
0
0
0
0
0
0
0
0
0
0
0
0
0
0
0
0
0
0
0
0
0
0
0
0
0
0
0
0
0
0
0
0
0
0
0
0
0
0
0
0
0
0
0
0
0
0
0
0
0
0
0
0
0
0
0
0
0
0
0
0
0
0
0
0
0
0
0
0
0
0
0
0
0
0
0
0
0
0
0
0
0
0
0
0
0
0
0
0
0
0
0
0
0
0
0
0
0
0
0
0
0
0
0
0
0
0
0
0
0
0
0
0
0
0
0
0
0
0
0
0
0
0
0
0
0
0
0
0
0
0
0
0
0
0
0
0
0
0
0
0
0
0
0
0
0
0
0
0
0
0
0
0
0
0
0
0
0
0
0
0
0
0
0
0
0
0
0
0
0
0
0
0
0
0
0
0
0
0
0
0
0
0
0
0
0
0
0
0
0
0
0
0
0
0
0
0
0
0
0
0
0
0
0
0
0
0
0
0
0
0
0
0
0
0
0
0
0
0
0
0
0
0
0
0
0
0
0
0
0
0
0
0
0
0
0
0
0
0
0
0
0
0
0
0
0
0
0
0
0
0
0
0
0
0
0
0
0
0
0
0
0
0
0
0
0
0
0
0
0
0
0
0
0
0
0
0
0
0
0
0
0
0
0
0
0
0
0
0
0
0
0
0
0
0
0
0
0
0
0
0
0
0
0
0
0
0
0
0
0
0
0
0
0
0
0
0
0
0
0
0
0
0
0
0
0
0
0
0
0
0
0
0
0
0
0
0
0
0
0
0
0
0
0
0
0
0
0
0
0
0
0
0
0
0
0
0
0
0
0
0
0
0
0
0
0
0
0
0
0
0
0
0
0
0
0
0
0
0
0
0
0
0
0
0
0
0
0
0
0
0
0
0
0
0
0
0
0
0
0
0
0
0
0
0
0
0
0
0
0
0
0
0
0
0
0
0
0
0
0
0
0
0
0
0
0
0
0
0
0
0
0
0
0
0
0.141803
0
0
0
0
0
0
0.141698
0
0
0
0
0.141788
0
0.1416
0
0
0.141803
0.141803
0
0.141803
0.141803
0.141803
0.141683
0.141803
0.140129
0.141792
0
0
0.141803
0.140384
0.141803
0.141803
0.141803
0.141803
0.141803
0.141803
0
0
0
0.141803
0.141803
0.141803
0.141803
0.141803
0.141499
0.141803
0.141803
0.139967
0.140966
0.141781
0
0
0.140977
0.140833
0.141803
0.141803
0.141803
0
0.139738
0.141803
0.141803
0.141803
0
0.140626
0.141803
0.141802
0.141803
0.141686
0
0
0
0
0.141796
0.141803
0.141803
0.140725
0.141803
0.141803
0
0
0.141803
0.141275
0.141803
0.141803
0.1418
0.141803
0.138221
0.141356
0.141803
0.141795
0.141803
0.141803
0.138086
0.141803
0.137831
0.138053
0.140625
0.141798
0.141803
0
0
0.138064
0.138934
0.140534
0.141803
0.141803
0.139695
0.14133
0.141743
0.138106
0.138163
0.141797
0
0.141803
0.141803
0.141803
0.141803
0.141803
0.141803
0.138528
0.141724
0.141803
0
0
0
0.141803
0.141803
0.139498
0.141803
0.138505
0.141794
0.140386
0.141803
0.141028
0.141436
0.141803
0.141803
0.141803
0.141803
0.141803
0.141803
0.141803
0.141803
0.141803
0.141331
0.13812
0.141803
0.141803
0.141803
0.141803
0.141802
0.1405
0.139357
0.141645
0.141803
0.137569
0.140507
0.141803
0.138325
0.141803
0.140421
0.139313
0.139214
0.139057
0.139334
0
0.140672
0.141281
0.139536
0.138007
0.138565
0.141803
0.139592
0.141146
0.138802
0.14001
0.141803
0.141803
0.138517
0.141803
0.141211
0.141803
0.141802
0.137347
0.141803
0.138892
0.141803
0.141803
0.141789
0.13901
0.141803
0.140073
0.139948
0
0.141803
0.141803
0.141803
0.140182
0.139
0.139416
0.141803
0.139321
0.141803
0.141803
0.141771
0.141803
0.138301
0.141677
0.139473
0.141803
0.141803
0.139165
0.140374
0.141803
0.141803
0
0.141803
0.138336
0.141803
0.141803
0.141801
0.138739
0.140848
0.141803
0.138318
0.137814
0.14035
0.138213
0.138284
0.138413
0.138868
0.141803
0.139857
0.139877
0.141803
0
0.139667
0.13911
0.140704
0.139869
0.139965
0.141764
0.141278
0.141803
0.138348
0.141074
0.141803
0.13858
0.139748
0.139995
0.139522
0.140411
0.141803
0.141803
0.141797
0.139681
0.140032
0.141803
0.141724
0.140122
0.141735
0.137985
0.137672
0.141803
0.137982
0.138149
0.13882
0.138271
0.141803
0.139014
0.141258
0.140411
0.141074
0.141803
0.141803
0
0.141011
0.13843
0.14179
0.141803
0.138509
0.141803
0.138812
0.138814
0.138862
0.140405
0.141803
0
0
0.139841
0.141803
0.141803
0.141803
0.141803
0.13706
0.141803
0.138431
0.138904
0.141803
0.139011
0.141803
0.140273
0.141474
0.141803
0.138059
0.140128
0.138332
0.139793
0.141565
0.141803
0.139441
0.139404
0.138343
0.141803
0.138474
0.141803
0.141803
0.139895
0.141803
0.139439
0.141803
0.140398
0.14102
0.141803
0
0
0.141803
0.141803
0.13805
0.140878
0.138572
0.138985
0.140718
0.138118
0.138316
0.139096
0.1418
0.138436
0.141053
0.140736
0.140609
0.139976
0.141778
0.141803
0.141803
0.141803
0.136688
0.138589
0.141803
0.141803
0.140386
0.141792
0.137745
0.141717
0.138021
0.139588
0.141803
0.141803
0.141803
0
0.141032
0.141803
0.141803
0.14058
0.138339
0.139921
0.138799
0.137936
0.14058
0.138272
0.139237
0.138975
0.139228
0.139972
0.138627
0.139421
0.140022
0.139773
0.139419
0.141185
0.141803
0.141803
0
0
0.141803
0.141803
0.141803
0.141803
0.141803
0.137307
0.141802
0.141803
0.141803
0.137956
0.138944
0.141803
0.138657
0.140534
0.139031
0.139089
0.139799
0.1399
0.141803
0.141803
0.141803
0
0.141803
0.141803
0.141803
0.140743
0.139816
0.140755
0.138364
0.138527
0.138204
0.138352
0.141803
0.138862
0.139458
0.139609
0.13959
0.139291
0.141803
0.139248
0.141803
0.141803
0.141767
0.141803
0.141803
0.141803
0.141803
0.141803
0.141431
0.139036
0.140958
0.137752
0.137781
0.137887
0.138605
0.141803
0.138684
0.139773
0.140515
0.140404
0.141803
0.140754
0.141217
0.141803
0.141803
0.141803
0.141803
0
0
0
0.140647
0.14032
0.141803
0.141803
0.141801
0.141803
0.137689
0.138417
0.137982
0.138743
0.138824
0.138793
0.138951
0.140437
0.141803
0.141803
0.139892
0.139851
0.141604
0.140017
0.140347
0.141803
0.140527
0.141803
0.141803
0.141731
0.141803
0.141803
0.141797
0.14138
0.141176
0.138192
0.139119
0.141803
0.138913
0.141803
0.141795
0.138975
0.139004
0.139283
0.139253
0.139513
0.13962
0.141803
0
0.141803
0.13744
0.139544
0.138293
0.137143
0.141803
0.137504
0.137865
0.139334
0.139356
0.138622
0.141803
0.138438
0.140594
0.141803
0.138633
0.141803
0.141803
0.137818
0.138574
0.141803
0.141803
0.13864
0.137972
0.141803
0.141803
0.138233
0.139487
0.141803
0.13795
0.139455
0.140923
0.138586
0.139054
0.139133
0.141803
0.139118
0.140459
0.141803
0.141803
0.141803
0.140552
0.139866
0.137768
0.138915
0.140181
0.137978
0.138314
0.137914
0.137903
0.138941
0.139279
0.141803
0.138739
0.141155
0.139267
0.139859
0.13925
0.139389
0.140593
0
0.140655
0.141803
0.140845
0.141621
0.137089
0.141803
0.140087
0.138186
0.137828
0.140801
0.141803
0.138317
0.139339
0.138431
0.138983
0.138313
0.139903
0.139083
0.139893
0.141803
0.14015
0.141803
0.141803
0.140747
0.141803
0.141803
0.13845
0.14027
0.137765
0.136805
0.136874
0.141803
0.137018
0.13855
0.137936
0.137941
0.139639
0.139547
0.138879
0.139225
0.141803
0.13972
0.141802
0.141803
0.141803
0
0.141803
0.141801
0.138599
0.1418
0.137285
0.141803
0.13866
0.139645
0.139236
0.138042
0.138093
0.141803
0.138638
0.140094
0.138853
0.139385
0.140168
0.141604
0.141803
0.141163
0
0.141803
0.139052
0.141803
0.137767
0.137118
0.14031
0.140832
0.141803
0.141537
0.13966
0.14026
0.141803
0.138193
0.138543
0.139758
0.138617
0.141803
0.139047
0.139262
0.141803
0.139739
0.14159
0.141803
0.141803
0.141595
0.139988
0.139202
0.141
0.141803
0.137215
0.138734
0.138988
0.138678
0.139558
0.140183
0.139636
0.140345
0.14066
0.141803
0.141461
0.140956
0.141803
0.141803
0
0.141803
0.137873
0.141355
0.139018
0.141803
0.137576
0.138226
0.140066
0.137652
0.13812
0.138661
0.138567
0.138638
0.140081
0.139518
0.141803
0.141803
0.141803
0.141803
0.141803
0
0.140758
0.141803
0.140378
0.140514
0.137069
0.141803
0.137293
0.137136
0.13978
0.137245
0.137941
0.137468
0.140808
0.139236
0.141803
0.141803
0
0.140885
0.141803
0.141803
0.140008
0.141803
0.141803
0.138969
0.13746
0.139513
0.141803
0.138302
0.139093
0.139004
0.141803
0.139781
0.141803
0.141803
0.141803
0
0.140241
0.140833
0.140187
0.141036
0.141803
0.141803
0.137366
0.139473
0.137016
0.137403
0.141798
0.137357
0.141803
0.137656
0.138408
0.137878
0.137898
0.138001
0.139759
0.141803
0.141196
0.141193
0
0
0.138602
0.139338
0.138398
0.139361
0.138094
0.139257
0.137248
0.138205
0.141799
0.137783
0.138192
0.13993
0.138003
0.137849
0.141803
0.138038
0.138396
0.140385
0.138693
0.139085
0.13949
0.140218
0.140067
0.141803
0.141803
0.141803
0
0.140443
0.139519
0.141803
0.137332
0.137146
0.141803
0.141803
0.137428
0.137947
0.139142
0.138276
0.138598
0.139769
0.139005
0.139821
0
0.14167
0.139817
0.138958
0.140431
0.138018
0.141803
0.141803
0.137727
0.141802
0.137527
0.1404
0.140891
0.138022
0.141803
0.139744
0.137586
0.141803
0.138342
0.139069
0.141802
0.139832
0.139072
0.14031
0.140486
0.141287
0.140099
0.141803
0.141542
0.13773
0.141803
0.141803
0.141803
0.138566
0.140483
0.141451
0.141803
0.138318
0.139928
0.140653
0.141803
0.138201
0.138265
0.139625
0.140865
0.14038
0.141173
0.141803
0.141803
0.139024
0.141803
0.141803
0.141803
0.137803
0.13698
0.140804
0.137987
0.137736
0.139123
0.138418
0.141803
0.138639
0.138665
0.139035
0.139034
0.139059
0.139212
0.141803
0.13977
0
0.13929
0.141163
0.141788
0.13932
0.141803
0.138433
0.137833
0.137472
0.13802
0.137355
0.141063
0.140289
0.138199
0.138403
0.138362
0.139548
0.139668
0.139193
0.140565
0.141803
0.140787
0
0.141803
0.138138
0.139164
0.141802
0.13816
0.138596
0.138512
0.13851
0.139023
0.1396
0.13895
0.139247
0.139097
0.139318
0.139512
0.140173
0.140608
0
0.141803
0.141803
0.138468
0.138238
0.141803
0.139681
0.141803
0.141803
0.137389
0.139905
0.141803
0.139049
0.140885
0.141803
0.138087
0.138202
0.138883
0.139844
0.13999
0.139423
0.139559
0.141803
0.140852
0.141803
0.141803
0
0.14099
0.139313
0.141803
0.138196
0.139738
0.141801
0.141803
0.137992
0.139303
0.140346
0.137154
0.137703
0.137978
0.138997
0.137913
0.138416
0.138629
0.138986
0.138036
0.138081
0.13837
0.139532
0.141777
0.139729
0.140484
0.141803
0.14094
0.141803
0.141803
0.136558
0.141803
0.139703
0.138007
0.138525
0.1374
0.13738
0.13784
0.141803
0.137741
0.137739
0.137833
0.137952
0.139797
0.138826
0.139318
0.141803
0
0.141803
0.140631
0.137694
0.141691
0.137299
0.138154
0.141156
0.141803
0.13969
0.137219
0.138221
0.13981
0.138701
0.138291
0.139439
0.139325
0.141803
0.139555
0.140312
0.140121
0
0
0.139832
0.140404
0.137501
0.140891
0.141803
0.141803
0.137502
0.137923
0.138812
0.140189
0.137887
0.139111
0.138832
0.138539
0.139013
0.141301
0.141803
0
0
0
0.137746
0.139361
0.141803
0.141205
0.139772
0.137069
0.136931
0.141436
0.138559
0.139376
0.141803
0.137587
0.137865
0.138194
0.138575
0.138771
0.139436
0.140481
0.141437
0
0.140279
0.141803
0.141801
0.13901
0.138904
0.136781
0.137332
0.137888
0.139554
0.139787
0.138189
0.140209
0.138119
0.138553
0.13833
0.139421
0.139519
0.138624
0.140369
0.140268
0.141096
0
0.139471
0.141578
0.137217
0.137552
0.141803
0.137992
0.141306
0.138131
0.139234
0.141803
0.137837
0.137898
0.139758
0.137948
0.141803
0.138177
0.138719
0.140179
0.141803
0.140646
0.14144
0.141803
0.141803
0.141803
0.141803
0.141803
0.141803
0.138073
0.141803
0.14017
0.136956
0.137043
0.137473
0.141802
0.137889
0.138004
0.141216
0.137892
0.138069
0.138431
0.13877
0.139659
0.138574
0.140344
0.140588
0.141035
0.141803
0.141649
0.138004
0.141803
0.141803
0.141803
0.139601
0.137201
0.136826
0.139053
0.137383
0.137386
0.137714
0.139027
0.137963
0.138163
0.138168
0.139292
0.13818
0.139693
0.13922
0.139648
0.140669
0.138902
0.139686
0.137583
0.138373
0.136602
0.136898
0.139252
0.13832
0.139106
0.13835
0.13821
0.139807
0.139124
0.139897
0.141803
0.141803
0.140942
0.141803
0.141803
0.140579
0.140113
0.13666
0.140398
0.136931
0.139456
0.137279
0.137357
0.13776
0.138244
0.138642
0.139139
0.139196
0.138634
0.141803
0.138952
0.139109
0.139102
0.141314
0.141293
0.140877
0.141803
0
0.138453
0.139215
0.13936
0.137446
0.137851
0.137695
0.137597
0.138209
0.137557
0.137648
0.138111
0.138984
0.139099
0.138419
0.139296
0.140158
0.141803
0.139658
0.139259
0.141734
0.141803
0.141803
0.139954
0.13772
0.141803
0.137853
0.138582
0.141803
0.1394
0.137514
0.138576
0.138947
0.137891
0.137986
0.138115
0.140606
0.139168
0.139327
0.14143
0.140474
0.141803
0.141803
0.141803
0.141803
0.141803
0.138339
0.140176
0.139524
0.138958
0.136796
0.137104
0.137449
0.138705
0.141803
0.137355
0.137864
0.139948
0.137684
0.138192
0.138315
0.138422
0.138227
0.139134
0.139664
0.141803
0.139834
0.140061
0
0.14108
0.141803
0.141803
0.138256
0.139111
0.140688
0.137188
0.137344
0.140027
0.13888
0.138377
0.138356
0.139733
0.138115
0.139148
0.141803
0.139083
0.141803
0.141803
0
0
0.140234
0.136524
0.141803
0.138347
0.137793
0.13717
0.136887
0.13716
0.137818
0.137336
0.137389
0.137456
0.13802
0.139617
0.137922
0.138101
0.13828
0.140186
0
0.141803
0.141803
0.141803
0.137656
0.141803
0.141779
0.137413
0.137999
0.138248
0.139154
0.137424
0.137514
0.138364
0.138198
0.138358
0.138687
0.139885
0.139448
0
0
0.140738
0.140288
0.139171
0.138171
0.139061
0.139221
0.136546
0.138951
0.137066
0.137311
0.137687
0.141803
0.137517
0.137918
0.138617
0.139131
0.139447
0
0.141803
0.138739
0.140788
0.141803
0.141803
0.139517
0.138165
0.137603
0.138109
0.141803
0.141451
0.137259
0.137306
0.138332
0.139941
0.138393
0.13993
0.138814
0.138669
0.138635
0.141803
0.139428
0.141112
0.141803
0
0.139488
0.138307
0.141803
0.139313
0.141803
0.141803
0.136351
0.139542
0.14084
0.141803
0.13711
0.137501
0.141803
0.139538
0.141803
0.137112
0.13777
0.139703
0.137825
0.138201
0.138648
0.141803
0.141605
0.138518
0.141803
0.141095
0.141803
0.138507
0.141803
0.1382
0.13967
0.140231
0.140548
0.14155
0.13718
0.141803
0.137872
0.138084
0.137667
0.140842
0.138253
0.138411
0.1415
0.141803
0.138806
0
0
0.138302
0.141803
0.140578
0.138815
0.140457
0.138256
0.137487
0.141719
0.140968
0.136562
0.140491
0.140093
0.140613
0.137539
0.13805
0.139755
0.137102
0.137686
0.138681
0.138057
0.139163
0.138211
0.138388
0.138396
0.138782
0.139606
0.140103
0.141803
0.140019
0
0
0
0
0
0
0
0
0
0
0
0
0
0
0
0
0
0
0
0
0
0
0
0
0
0
0
0
0
0
0
0
0
0
0
0
0
0
0
0
0
0
0
0
0
0
0
0
0
0
0
0
0
0
0
0
0
0
0
0
0
0
0
0
0
0
0
0
0
0
0
0
0
0
0
0
0
0
0
0
0
0
0
0
0
0
0
0
0
0
0
0
0
0
0
0
0
0
0
0
0
0
0
0
0
0
0
0
0
0
0
0
0
0
0
0
0
0
0
0
0
0
0
0
0
0
0
0
0
0
0
0
0
0
0
0
0
0
0
0
0
0
0
0
0
0
0
0
0
0
0
0
0
0
0
0
0
0
0
0
0
0
0
0
0
0
0
0
0
0
0
0
0
0
0
0
0
0
0
0
0
0
0
0
0
0
0
0
0
0
0
0
0
0
0
0
0
0
0
0
0
0
0
0
0
0
0
0
0
0
0
0
0
0
0
0
0
0
0
0
0
0
0
0
0
0
0
0
0
0
0
0
0
0
0
0
0
0
0
0
0
0
0
0
0
0
0
0
0
0
0
0
0
0
0
0
0
0
0
0
0
0
0
0
0
0
0
0
0
0
0
0
0
0
0
0
0
0
0
0
0
0
0
0
0
0
0
0
0
0
0
0.141803
0.141803
0
0.141803
0
0.141803
0.141803
0
0.141744
0
0
0
0.141803
0.141803
0.141796
0.141779
0.141759
0
0
0.141803
0
0.141803
0.141766
0.141794
0.141749
0
0
0.141795
0.141784
0.141757
0.141667
0.141525
0
0
0
0.141794
0.141665
0.14178
0.141796
0.141792
0.141802
0.141803
0.141788
0.141781
0.141803
0.141676
0.14175
0
0
0
0.141803
0.140955
0.140819
0.141803
0.141768
0
0.141763
0.14148
0
0
0.141803
0.141803
0.141803
0.141186
0
0.141803
0.141799
0.141525
0.141803
0.141803
0.141803
0.141801
0
0.141802
0.141803
0.141541
0.141803
0
0
0
0
0.141803
0.141735
0.141604
0.141803
0.141799
0.141791
0.140698
0.141802
0.141799
0.141803
0.141803
0.140012
0.141803
0.141803
0.141732
0.141607
0.141803
0.141803
0.141044
0.141372
0.141803
0.141803
0.141803
0.141803
0.141803
0.141803
0.141775
0.14171
0.141803
0.141803
0.141803
0.141776
0.141767
0.141795
0.141777
0.141803
0.141751
0.14179
0.141803
0.141803
0.141803
0.141801
0.138403
0.141803
0.141783
0
0.141794
0.141798
0.1418
0.141803
0.141635
0.14175
0.141803
0.141792
0.141803
0.141803
0.141803
0.141803
0.141803
0.141803
0.141803
0.141794
0.141758
0.1418
0.141803
0.141786
0.141776
0.141803
0.141398
0.141803
0.1417
0
0.141797
0.141648
0.141759
0.141803
0.141791
0.141803
0.141803
0.141803
0.139369
0.141803
0.141801
0.141803
0.141803
0.141803
0.141786
0.141729
0.141485
0.141693
0.141802
0.141784
0.141803
0.141803
0.141803
0
0
0
0
0
0.141794
0.141772
0.140614
0.141803
0.141803
0.141718
0
0.141803
0.141796
0.141803
0.141803
0.141532
0.141803
0.141746
0.141803
0.139873
0.141803
0.141798
0.141799
0.141803
0.141803
0.141281
0.141803
0.141647
0.141803
0.141803
0.141803
0.141803
0.141801
0.141803
0.141803
0.141803
0
0.141803
0.141803
0.141782
0.141803
0.141788
0.1418
0.141742
0.140616
0.141797
0.141803
0.141798
0
0.14179
0.141792
0.141795
0.141803
0.141803
0.141723
0.141803
0.141803
0.141803
0.141803
0.140546
0.141635
0.141803
0.141801
0.141802
0.141803
0.141803
0
0.141803
0.141803
0.141034
0.141803
0.141803
0.141803
0.141803
0.141717
0.14145
0.141803
0.141803
0.141803
0.141803
0.141803
0.141796
0.141803
0
0.141803
0.141803
0.141775
0.141803
0.141803
0.141727
0.141708
0.141789
0.141802
0.141803
0.14011
0.141678
0.141803
0.141763
0.141803
0.141795
0
0.141795
0.141789
0.141743
0.141717
0.141803
0.141803
0.13827
0.141512
0.140284
0.138845
0.140741
0.141803
0.1399
0.141803
0.141803
0.141531
0.141803
0.141803
0.141803
0.141803
0.141803
0.141803
0
0
0.1418
0.1417
0.141705
0.139626
0.141803
0.1418
0.139385
0.141262
0.140484
0.141803
0.141803
0.141525
0.141803
0.141803
0.141803
0.141803
0.141803
0.141803
0.141803
0.139829
0.141578
0.141803
0.141803
0.140887
0.141803
0.141803
0.141794
0.141803
0.141803
0.140649
0.141803
0.141803
0.141803
0.141803
0.141803
0.141803
0.141803
0.141803
0.141803
0.141803
0
0
0.141782
0.141796
0.141803
0.141796
0.1414
0.141803
0.141803
0.141803
0.141803
0.139725
0.14021
0.141796
0.141803
0.140298
0.14168
0.140544
0.141803
0.141803
0.141803
0.141803
0.141803
0.141803
0.141803
0.141803
0.141803
0.141801
0.141797
0.141803
0.141798
0.141797
0.141799
0.141803
0.141803
0.141803
0.138989
0.141633
0.141351
0.141793
0.140715
0.139581
0.141084
0.140397
0.141762
0.141803
0.141803
0.141803
0.141803
0.141803
0.141803
0.141803
0.141798
0.141803
0.141801
0.141801
0.141739
0.140502
0.140424
0.139041
0.141552
0.139437
0.141592
0.141803
0.141803
0.141803
0.140683
0.141803
0.141803
0.141803
0.141803
0.140695
0.141803
0.141803
0.141803
0.141803
0.141803
0.141803
0.141803
0.141803
0.141803
0.141803
0.1418
0
0.141803
0.141719
0.141803
0.140068
0.140718
0.141454
0.139912
0.140961
0.141803
0.141801
0.141803
0.141803
0.141803
0.141803
0.141803
0.141802
0.141803
0.141803
0.141803
0.141803
0
0
0.141803
0.141803
0.141745
0.141684
0.141803
0.141803
0.141033
0.141803
0.138658
0.141803
0.141803
0.141803
0
0
0
0
0.141802
0.141803
0.141783
0.141791
0.141803
0.141051
0.140885
0.140178
0.141803
0.141504
0.140328
0.141803
0.141093
0.141803
0.141803
0.141803
0.141803
0.141803
0.141803
0
0
0
0.14179
0.141803
0.141803
0.141803
0.141803
0.140992
0.13975
0.139257
0.141803
0.141803
0.141803
0.141786
0.141803
0.14077
0.141803
0.141803
0.141803
0.141803
0.141796
0.141803
0.141803
0.141798
0
0
0.141803
0.141725
0.141728
0.141798
0.141799
0.138765
0.141803
0.139286
0.139444
0.140765
0.141375
0.141803
0.141803
0.141803
0.141794
0.141803
0.141803
0.141803
0.141802
0
0.141782
0.141734
0.141802
0.140235
0.139954
0.141803
0.141803
0.14055
0.14046
0.141722
0.141803
0.141803
0.141803
0.141803
0
0
0.141803
0.141803
0.141803
0.141748
0.141803
0.141803
0.140035
0.141781
0.140414
0.14177
0.140727
0.141803
0.141803
0.141803
0.140557
0.141803
0.141803
0.141803
0.141803
0.141803
0.141803
0.141803
0.141803
0
0.141803
0.141635
0.141708
0.141716
0.141803
0.141803
0.141735
0.141803
0.141638
0.141803
0.139958
0.140204
0.141458
0.141803
0.141803
0.141801
0.141803
0
0.141803
0.141799
0.141777
0.141675
0.141788
0.141802
0.141801
0.141798
0.141803
0.141779
0.141767
0.141803
0.141803
0.141803
0.141803
0.139922
0.141803
0.141619
0.141803
0.141803
0.141803
0.141803
0.141803
0
0
0
0.141803
0.141803
0.141652
0.141797
0.141803
0.139578
0.141452
0.141796
0.141088
0.141803
0.141803
0.141803
0.141803
0.141803
0.141803
0.141803
0
0
0
0.141801
0.141695
0.141803
0.139889
0.141803
0.141803
0.13914
0.1418
0.141187
0.141801
0.139865
0.139309
0.141075
0.141542
0.140931
0.141803
0.141801
0.141803
0.141803
0.141803
0.141803
0.141803
0
0.141702
0.141714
0.141803
0.141803
0.141803
0.140373
0.141803
0.141803
0.139914
0.141803
0.141803
0.141046
0.141803
0.141803
0.141803
0.141803
0.141803
0.141803
0.141803
0.141803
0.141798
0
0
0.141803
0.141803
0.141801
0.141759
0.141803
0.141712
0.141803
0.141748
0.140775
0.141801
0.141803
0.141023
0.140176
0.141803
0.141803
0.141803
0.141802
0.141803
0.141801
0.141803
0.141796
0.141803
0.141788
0.141803
0.141803
0.139032
0.138916
0.141803
0.140193
0.140333
0.141803
0.141803
0.140882
0.140868
0.141803
0.141803
0.141803
0.141803
0.141803
0
0
0.141803
0.141598
0.141803
0.141803
0.141803
0.138809
0.141803
0.141803
0.139604
0.141803
0.141799
0.139218
0.141799
0.141792
0.141803
0.141694
0.141799
0.141803
0.141803
0
0
0.141803
0.1418
0.141127
0.141779
0.141799
0.141779
0.140115
0.139369
0.138564
0.141454
0.141774
0.139394
0.141803
0.14089
0.141803
0.141801
0.141803
0
0
0.141798
0.141803
0.141783
0.141803
0.140634
0.141546
0.141803
0.141803
0.141803
0.140922
0.141519
0.141803
0.141803
0.140696
0.140462
0.141393
0.141803
0.141803
0.141801
0.141803
0.141803
0.141803
0.141803
0.13754
0.141802
0.141779
0.141797
0.139095
0.139753
0.138452
0.141803
0.141803
0.141803
0.141803
0.141803
0.141199
0.141803
0.141803
0.141803
0.141803
0.141803
0.141803
0.141803
0
0
0
0.141803
0.141801
0.13863
0.141756
0.141803
0.13831
0.138791
0.140276
0.141803
0.141751
0.141803
0.141802
0.141803
0.141803
0.141803
0
0.141803
0.141803
0.141793
0.141803
0.141803
0.140407
0.138926
0.138962
0.138876
0.138892
0.140222
0.14007
0.139177
0.139398
0.139552
0.141761
0.141795
0.141562
0.141803
0.141592
0.141803
0.141803
0.141803
0.141803
0.141803
0.141803
0.141803
0.141803
0.141803
0.141802
0.141801
0.141803
0
0.141803
0.141794
0.141798
0.141802
0.141803
0.141803
0.141799
0.141803
0.141803
0.141539
0.139835
0.138841
0.14168
0.141803
0.141141
0.141201
0.141803
0.141803
0.141803
0.141453
0.141803
0.141803
0.141803
0
0.141803
0.141803
0.1402
0.141803
0.138936
0.140941
0.141803
0.141803
0.141108
0.140818
0.141796
0.141803
0.141803
0.141803
0.141803
0
0.141803
0.141801
0.141799
0.141684
0.141763
0.141803
0.141803
0.141803
0.138528
0.139468
0.140921
0.141803
0.141803
0.141803
0.141353
0.140253
0.140182
0.141803
0.141803
0.141803
0.141803
0.141803
0.141803
0.141803
0.141803
0.141803
0.141803
0.141803
0
0.141772
0.141667
0.141786
0.141723
0.141801
0.141803
0.141803
0.139642
0.1417
0.141803
0.141803
0.141803
0.141803
0.141803
0
0.141803
0.1418
0.141803
0.141499
0.141678
0.141803
0.141798
0.14173
0.139537
0.138594
0.140316
0.141802
0.141803
0.141803
0.141803
0.141803
0.141803
0.141803
0.141803
0.141803
0.141803
0.141803
0.141803
0.141803
0.141803
0.141769
0.141803
0.141801
0.140096
0.141803
0.139612
0.139212
0.139963
0.140632
0.141536
0.141156
0.141803
0.141803
0.141803
0.141803
0.141803
0.141803
0
0
0.141803
0.141803
0.141803
0.141803
0.141803
0.141803
0.138714
0.141803
0.141272
0.141701
0.141803
0.141689
0.138496
0.140925
0.141803
0.141803
0.141803
0.139351
0.141781
0.141803
0.141591
0.140607
0.141803
0.141803
0.141401
0.141661
0.141803
0.141796
0
0.141803
0.141803
0.141803
0.138644
0.1389
0.139969
0.141803
0.139307
0.14101
0.141803
0.141803
0.141803
0.141611
0.141803
0.14079
0.141803
0.141803
0.141799
0.141803
0.1418
0.141803
0.141803
0
0.141803
0.141803
0.141803
0.141803
0.141803
0.141801
0.141789
0.139695
0.138273
0.141803
0.141803
0.1403
0.140113
0.141803
0.141803
0.141497
0.141803
0.141803
0.141803
0.141803
0.141803
0.141803
0.141803
0
0
0.14089
0.141803
0.141803
0.141803
0.139403
0.140004
0.139131
0.140873
0.141803
0.138771
0.141113
0.140214
0.139943
0.140095
0.141289
0.141803
0.141803
0.141803
0.141803
0.141803
0.141803
0.141803
0.141803
0.141803
0.141803
0.141702
0.140302
0.141761
0.141232
0.141803
0.138028
0.14135
0.141803
0.141803
0.141803
0.141803
0.139519
0.140606
0.138957
0.141525
0.141803
0.141533
0.140834
0.141803
0.141803
0.141803
0
0
0
0.140288
0.1418
0.140612
0.140076
0.140503
0.139818
0.140081
0.141803
0.141135
0.141803
0.141803
0.141803
0.141767
0.141803
0.141803
0.141801
0.141803
0.141803
0.141801
0.141621
0.141803
0.138094
0.140382
0.141803
0.141191
0.139475
0.139473
0.141803
0.141803
0.141803
0.141803
0.141803
0.141803
0.141801
0.141803
0.141777
0.141797
0.141799
0.140454
0.141755
0.141803
0.141803
0.138212
0.141803
0.141803
0.139809
0.141059
0.141803
0.141803
0.141803
0.141803
0
0.141801
0.141784
0.1417
0.14179
0.139432
0.139831
0.141803
0.138529
0.139865
0.141803
0.141295
0.138852
0.13936
0.141803
0.141095
0.141802
0.141781
0.141803
0.141803
0.141803
0.141803
0.141803
0.138691
0.141803
0.138099
0.138472
0.141803
0.141803
0.139855
0.141803
0.141803
0.141549
0.140651
0.141803
0.141803
0.141803
0.141803
0.141803
0.141803
0.141803
0
0.139031
0.141803
0.141803
0.141803
0.140619
0.141803
0.141803
0.140302
0.14178
0.141803
0.141092
0.141803
0.14
0.141338
0.141803
0.140344
0.140603
0.140928
0.141315
0.141482
0.141803
0.141803
0.141803
0.141803
0
0.141803
0.141803
0.141803
0.141803
0.141803
0.14041
0.141802
0.140673
0.140084
0.138893
0.139343
0.140573
0.139831
0.139099
0.139626
0.140876
0.141803
0.141803
0.141803
0.141803
0.141772
0.139517
0.139816
0.141803
0.141803
0.138629
0.139299
0.141803
0.138696
0.139011
0.139756
0.139667
0.13968
0.140498
0.141803
0.141803
0.140127
0.141706
0.141803
0.141803
0.141803
0.141803
0.141803
0.141803
0.141258
0.138622
0.141609
0.141803
0.141803
0.140093
0.141803
0.138791
0.141788
0.139748
0.140199
0
0
0
0.141803
0.141803
0.141773
0.137798
0.138223
0.14114
0.138474
0.139386
0.139006
0.139109
0.141803
0.141332
0.141803
0.141803
0.141803
0.141803
0.141803
0.141803
0.141803
0.141803
0.141799
0.141803
0.141803
0.141803
0.141322
0.141803
0.141803
0.139979
0.141803
0.141803
0.140793
0.141803
0.141443
0.139007
0.139246
0.141803
0.141803
0.141803
0.141803
0.141803
0.141803
0
0.141803
0.139807
0.141803
0.141803
0.1418
0.141803
0.141803
0.141803
0.141803
0.1413
0.139091
0.138953
0.139977
0.141803
0.139257
0.13985
0.139893
0.141803
0.140244
0.141803
0.141803
0.141803
0
0.141803
0.141803
0.14178
0.141792
0.138116
0.140776
0.137625
0.141803
0.141803
0.141803
0.141803
0.139748
0.139244
0.141021
0.13968
0.140725
0.141803
0.140417
0.140832
0.141803
0.141803
0.141803
0.141803
0.141803
0
0
0.141803
0.141796
0.14179
0.141803
0.141803
0.141709
0.140431
0.141803
0.13918
0.139595
0.140169
0.139075
0.140435
0.139258
0.139653
0.139831
0.140002
0.141803
0.141803
0.141803
0.141803
0.141803
0.141803
0.141803
0.141803
0.139008
0.139749
0.1418
0.141803
0.141803
0.141802
0.140668
0.141143
0.13954
0.140001
0.141803
0.141803
0.141803
0
0.141803
0.141803
0.141798
0.141803
0.141803
0.14179
0.139446
0.141698
0.138483
0.138354
0.140722
0.141357
0.138523
0.139898
0.13906
0.140038
0.140168
0.139374
0.141803
0.141803
0.140753
0.141426
0.141803
0.140512
0.141803
0.141803
0.141803
0
0.141803
0.141803
0.141803
0.141803
0.137983
0.141494
0.141803
0.139821
0.141803
0.141803
0.137953
0.1418
0.141803
0.138276
0.139288
0.141803
0.141803
0.141802
0.14118
0.141803
0.141318
0.141803
0
0
0
0
0.141803
0.141803
0.141717
0.14169
0.141802
0.141669
0.139194
0.139093
0.138575
0.139256
0.141002
0.141803
0.141803
0.141803
0.141803
0.141803
0.141803
0.141803
0.141803
0.140636
0.141803
0.141803
0.139637
0.141803
0.138477
0.141803
0.138869
0.13975
0.141803
0.140509
0.140827
0.141803
0.141803
0.141803
0
0
0.141629
0.141803
0.141803
0.141802
0.141784
0.141803
0.140583
0.141795
0.137721
0.141803
0.141803
0.141803
0.138192
0.138508
0.141803
0.141803
0.139322
0.141803
0.139312
0.141803
0.141803
0.141803
0.140923
0.140606
0.13998
0.141732
0.141803
0.141803
0.141803
0.141803
0
0
0.141803
0.141803
0.141803
0.141803
0.141796
0.141803
0.140569
0.141803
0.138981
0.141785
0.141102
0.141026
0.138602
0.138899
0.138988
0.139011
0.139602
0.139673
0.140885
0.141803
0.141803
0
0.141803
0.141803
0.141803
0.141803
0.141803
0.141802
0.141803
0.137658
0.139318
0.141285
0.139733
0.139963
0.139001
0.139946
0.140205
0.141803
0.141083
0.141803
0.141803
0.141803
0
0
0.141543
0.141562
0.141406
0.141055
0.13808
0.140349
0.138299
0.138873
0.140183
0.138652
0.139132
0.13929
0.139575
0.140339
0.139934
0.140452
0.141803
0.141803
0.141803
0.14162
0.141803
0.141803
0.141803
0.141803
0.141803
0.141803
0.141803
0.141794
0.141803
0.141803
0.139674
0.141803
0.139841
0.138764
0.139316
0.139607
0.141803
0.141803
0.141362
0.141329
0.141803
0.141778
0.141803
0.141783
0.141766
0.141785
0.139556
0.140031
0.141803
0.14012
0.141803
0.141048
0.140923
0.139196
0.141803
0.141803
0.138521
0.138779
0.139237
0.139018
0.139454
0.141803
0.141803
0
0.141803
0.141803
0.137707
0.13977
0.141803
0.141422
0.139399
0.138581
0.138879
0.141786
0.139282
0.141803
0.141803
0.139475
0.140288
0.141803
0.141803
0.141803
0
0.141803
0.141803
0.140693
0.141803
0.141803
0.141803
0.139168
0.141803
0.141803
0.141803
0.138576
0.139988
0.139802
0.139551
0.14107
0.141803
0.141663
0.141803
0.141803
0.141803
0.141798
0.141803
0.141803
0.141661
0.141803
0.141803
0.139508
0.138433
0.140192
0.139621
0.139739
0.141803
0.140095
0.141803
0.141803
0.140937
0.141803
0.141803
0.141803
0.141796
0.139142
0.140751
0.141803
0.141803
0.141443
0.141789
0.141803
0.138915
0.140407
0.141803
0.139122
0.140251
0.141803
0.139512
0.141299
0.141803