/*--------------------------------*- C++ -*----------------------------------*\
| =========                 |                                                 |
| \\      /  F ield         | OpenFOAM: The Open Source CFD Toolbox           |
|  \\    /   O peration     | Version:  v1906                                 |
|   \\  /    A nd           | Web:      www.OpenFOAM.com                      |
|    \\/     M anipulation  |                                                 |
\*---------------------------------------------------------------------------*/
FoamFile
{
    version     2.0;
    format      ascii;
    class       scalarField;
    location    "2.83/lagrangian/coalCloud1";
    object      Ysolid;
}
// * * * * * * * * * * * * * * * * * * * * * * * * * * * * * * * * * * * * * //


53638
(
1
1
1
1
1
1
1
1
1
1
1
1
1
1
1
1
1
1
1
1
1
1
1
1
1
1
1
1
1
1
1
1
1
1
1
1
1
1
1
1
1
1
1
1
1
1
1
1
1
1
1
1
1
1
1
1
1
1
1
1
1
1
1
1
1
1
1
1
1
1
1
1
1
1
1
1
1
1
1
1
1
1
1
1
1
1
1
1
1
1
1
1
1
1
1
1
1
1
1
1
1
1
1
1
1
1
1
1
1
1
1
1
1
1
1
1
1
1
1
1
1
1
1
1
1
1
1
1
1
1
1
1
1
1
1
1
1
1
1
1
1
1
1
1
1
1
1
1
1
1
1
1
1
1
1
1
1
1
1
1
1
1
1
1
1
1
1
1
1
1
1
1
1
1
1
1
1
1
1
1
1
1
1
1
1
1
1
1
1
1
1
1
1
1
1
1
1
1
1
1
1
1
1
1
1
1
1
1
1
1
1
1
1
1
1
1
1
1
1
1
1
1
1
1
1
1
1
1
1
1
1
1
1
1
1
1
1
1
1
1
1
1
1
1
1
1
1
1
1
1
1
1
1
1
1
1
1
1
1
1
1
1
1
1
1
1
1
1
1
1
1
1
1
1
1
1
1
1
1
1
1
1
1
1
1
1
1
1
1
1
1
1
1
1
1
1
1
1
1
1
1
1
1
1
1
1
1
1
1
1
1
1
1
1
1
1
1
1
1
1
1
1
1
1
1
1
1
1
1
1
1
1
1
1
1
1
1
1
1
1
1
1
1
1
1
1
1
1
1
1
1
1
1
1
1
1
1
1
1
1
1
1
1
1
1
1
1
1
1
1
1
1
1
1
1
1
1
1
1
1
1
1
1
1
1
1
1
1
1
1
1
1
1
1
1
1
1
1
1
1
1
1
1
1
1
1
1
1
1
1
1
1
1
1
1
1
1
1
1
1
1
1
1
1
1
1
1
1
1
1
1
1
1
1
1
1
1
1
1
1
1
1
1
1
1
1
1
1
1
1
1
1
1
1
1
1
1
1
1
1
1
1
1
1
1
1
1
1
1
1
1
1
1
1
1
1
1
1
1
1
1
1
1
1
1
1
1
1
1
1
1
1
1
1
1
1
1
1
1
1
1
1
1
1
1
1
1
1
1
1
1
1
1
1
1
1
1
1
1
1
1
1
1
1
1
1
1
1
1
1
1
1
1
1
1
1
1
1
1
1
1
1
1
1
1
1
1
1
1
1
1
1
1
1
1
1
1
1
1
1
1
1
1
1
1
1
1
1
1
1
1
1
1
1
1
1
1
1
1
1
1
1
1
1
1
1
1
1
1
1
1
1
1
1
1
1
1
1
1
1
1
1
1
1
1
1
1
1
1
1
1
1
1
1
1
1
1
1
1
1
1
1
1
1
1
1
1
1
1
1
1
1
1
1
1
1
1
1
1
1
1
1
1
1
1
1
1
1
1
1
1
1
1
1
1
1
1
1
1
1
1
1
1
1
1
1
1
1
1
1
1
1
1
1
1
1
1
1
1
1
1
1
1
1
1
1
1
1
1
1
1
1
1
1
1
1
1
1
1
1
1
1
1
1
1
1
1
1
1
1
1
1
1
1
1
1
1
1
1
1
1
1
1
1
1
1
1
1
1
1
1
1
1
1
1
1
1
1
1
1
1
1
1
1
1
1
1
1
1
1
1
1
1
1
1
1
1
1
1
1
1
1
1
1
1
1
1
1
1
1
1
1
1
1
1
1
1
1
1
1
1
1
1
1
1
1
1
1
1
1
1
1
1
1
1
1
1
1
1
1
1
1
1
1
1
1
1
1
1
1
1
1
1
1
1
1
1
1
1
1
1
1
1
1
1
1
1
1
1
1
1
1
1
1
1
1
1
1
1
1
1
1
1
1
1
1
1
1
1
1
1
1
1
1
1
1
1
1
1
1
1
1
1
1
1
1
1
1
1
1
1
1
1
1
1
1
1
1
1
1
1
1
1
1
1
1
1
1
1
1
1
1
1
1
1
1
1
1
1
1
1
1
1
1
1
1
1
1
1
1
1
1
1
1
1
1
1
1
1
1
1
1
1
1
1
1
1
1
1
1
1
1
1
1
1
1
1
1
1
1
1
1
1
1
1
1
1
1
1
1
1
1
1
1
1
1
1
1
1
1
1
1
1
1
1
1
1
1
1
1
1
1
1
1
1
1
1
1
1
1
1
1
1
1
1
1
1
1
1
1
1
1
1
1
1
1
1
1
1
1
1
0.174603
1
1
1
1
1
1
0.174474
1
1
1
1
0.174585
1
0.174353
1
1
0.174603
0.174603
1
0.174603
0.174603
0.174603
0.174455
0.174603
0.172542
0.174668
1
1
0.174603
0.172856
0.174603
0.174603
0.174603
0.174603
0.174603
0.174603
1
1
1
0.174603
0.174603
0.174603
0.174603
0.174603
0.174228
0.174603
0.174603
0.172342
0.173573
0.174732
1
1
0.173586
0.173409
0.174603
0.174603
0.174603
1
0.17206
0.174603
0.174603
0.174603
1
0.173153
0.174603
0.174607
0.174603
0.175284
1
1
1
1
0.174644
0.174603
0.174603
0.173276
0.174603
0.174603
1
1
0.174603
0.173952
0.174603
0.174603
0.174619
0.174603
0.170193
0.174052
0.174603
0.174652
0.174603
0.174603
0.170026
0.174603
0.169712
0.169986
0.173153
0.174635
0.174603
1
1
0.169999
0.171071
0.17304
0.174603
0.174603
0.172007
0.17402
0.174952
0.17005
0.170122
0.17464
1
0.174603
0.174603
0.174603
0.174603
0.174603
0.174603
0.170571
0.175066
0.174603
1
1
1
0.174603
0.174603
0.171764
0.174603
0.170542
0.174592
0.172858
0.174603
0.173648
0.174151
0.174603
0.174603
0.174603
0.174603
0.174603
0.174603
0.174603
0.174603
0.174603
0.174022
0.170068
0.174603
0.174603
0.174603
0.174603
0.17461
0.172999
0.171591
0.174408
0.174603
0.16939
0.173007
0.174603
0.17032
0.174605
0.172902
0.171537
0.171415
0.171221
0.171563
1
0.173211
0.173961
0.171812
0.169929
0.170616
0.174603
0.17188
0.173794
0.170908
0.172396
0.174603
0.174603
0.170557
0.174603
0.173874
0.174603
0.174608
0.169117
0.174603
0.171018
0.174603
0.174603
0.174684
0.171164
0.174603
0.172473
0.172318
1
0.174603
0.174603
0.174603
0.172607
0.171152
0.171664
0.174603
0.171547
0.174603
0.174603
0.17479
0.174603
0.170291
0.174448
0.171734
0.174603
0.174603
0.171354
0.172843
0.174603
0.174603
1
0.174603
0.170334
0.174603
0.174603
0.174614
0.170831
0.173427
0.174603
0.170312
0.169691
0.172814
0.170182
0.170271
0.170429
0.170989
0.174603
0.172206
0.172231
0.174603
1
0.171972
0.171288
0.17325
0.172222
0.17234
0.174556
0.173956
0.174603
0.170348
0.173706
0.174603
0.170634
0.172072
0.172377
0.171794
0.172889
0.174603
0.174603
0.174641
0.17199
0.172422
0.174603
0.175066
0.172533
0.17452
0.169902
0.169517
0.174603
0.169898
0.170104
0.17093
0.170254
0.174603
0.171169
0.173931
0.172888
0.173706
0.174603
0.174603
1
0.173628
0.17045
0.174682
0.174603
0.170546
0.174603
0.17092
0.170923
0.170982
0.172881
0.174603
1
1
0.172187
0.174603
0.174605
0.174607
0.174603
0.168763
0.174603
0.170451
0.171034
0.174603
0.171165
0.174603
0.17272
0.174198
0.174603
0.169993
0.17254
0.17033
0.172128
0.17431
0.174603
0.171695
0.171649
0.170343
0.174603
0.170504
0.174603
0.174603
0.172253
0.174603
0.171692
0.174603
0.172873
0.173639
0.174603
1
1
0.174603
0.174603
0.169982
0.173464
0.170624
0.171133
0.173267
0.170065
0.170309
0.17127
0.174621
0.170457
0.173679
0.17329
0.173132
0.172354
0.174572
0.174603
0.174603
0.174603
0.168305
0.170646
0.174603
0.174603
0.172858
0.174667
0.169606
0.174497
0.169946
0.171875
0.174603
0.174603
0.174603
1
0.173653
0.174603
0.174603
0.173097
0.170338
0.172286
0.170904
0.169841
0.173097
0.170256
0.171443
0.17112
0.171433
0.172348
0.170692
0.17167
0.17241
0.172103
0.171667
0.173842
0.174603
0.174603
1
1
0.174603
0.174603
0.174603
0.174603
0.174603
0.169067
0.174608
0.174603
0.174603
0.169867
0.171082
0.174603
0.170729
0.17304
0.17119
0.171262
0.172135
0.17226
0.174603
0.174603
0.174603
1
0.174603
0.174603
0.174603
0.173298
0.172156
0.173312
0.170368
0.170569
0.170171
0.170354
0.174603
0.170981
0.171715
0.171902
0.171878
0.171509
0.174603
0.171457
0.174603
0.174603
0.174558
0.174603
0.174603
0.174603
0.174603
0.174603
0.174145
0.171196
0.173563
0.169615
0.169651
0.169782
0.170665
0.174603
0.170762
0.172104
0.173017
0.172881
0.174603
0.173311
0.173882
0.174603
0.174603
0.174603
0.174603
1
1
1
0.173179
0.172776
0.174603
0.174603
0.174615
0.174603
0.169538
0.170434
0.169898
0.170835
0.170934
0.170897
0.171091
0.172921
0.174603
0.174603
0.172251
0.172199
0.174357
0.172404
0.172811
0.174603
0.173032
0.174603
0.174603
0.175024
0.174603
0.174603
0.17464
0.174082
0.173831
0.170156
0.171298
0.174604
0.171045
0.174603
0.174651
0.171121
0.171156
0.1715
0.171464
0.171783
0.171915
0.174603
1
0.174603
0.169231
0.171822
0.170281
0.168865
0.174603
0.16931
0.169755
0.171563
0.171589
0.170686
0.174603
0.17046
0.173115
0.174604
0.1707
0.174603
0.174603
0.169696
0.170628
0.174603
0.174603
0.170708
0.169885
0.174603
0.174603
0.170207
0.171751
0.174603
0.169859
0.171712
0.173519
0.170642
0.171219
0.171316
0.174603
0.171297
0.172948
0.174603
0.174603
0.174603
0.173063
0.172217
0.169635
0.171047
0.172606
0.169893
0.170307
0.169814
0.169801
0.171079
0.171495
0.174603
0.17083
0.173805
0.17148
0.172209
0.171459
0.171631
0.173113
1
0.173189
0.174603
0.173423
0.174378
0.168799
0.174603
0.17249
0.170149
0.169708
0.173369
0.174603
0.170311
0.171569
0.170451
0.17113
0.170306
0.172264
0.171254
0.172251
0.174603
0.172568
0.174603
0.174603
0.173303
0.174603
0.174603
0.170474
0.172716
0.16963
0.168449
0.168534
0.174603
0.168711
0.170598
0.169841
0.169848
0.171939
0.171825
0.171003
0.171429
0.174603
0.172038
0.174609
0.174603
0.174603
1
0.174603
0.174614
0.170658
0.174623
0.16904
0.174603
0.170733
0.171946
0.171442
0.169973
0.170035
0.174603
0.170706
0.172499
0.17097
0.171626
0.17259
0.174358
0.174603
0.173815
1
0.174603
0.171216
0.174603
0.169634
0.168834
0.172765
0.173407
0.174603
0.174275
0.171964
0.172702
0.174603
0.170158
0.170589
0.172085
0.17068
0.174603
0.171209
0.171475
0.174603
0.172062
0.174341
0.174603
0.174603
0.174347
0.172368
0.1714
0.173614
0.174603
0.168954
0.170825
0.171136
0.170756
0.171839
0.172608
0.171935
0.172807
0.173196
0.174603
0.174182
0.173559
0.174603
0.174603
1
0.174603
0.169764
0.174051
0.171174
0.174603
0.169399
0.170199
0.172464
0.169492
0.170068
0.170734
0.170618
0.170705
0.172483
0.17179
0.174603
0.174603
0.174603
0.174603
0.174603
1
0.173316
0.174603
0.172849
0.173016
0.168774
0.174603
0.16905
0.168857
0.172111
0.16899
0.169848
0.169265
0.173378
0.171443
0.174603
0.174603
1
0.173473
0.174603
0.174603
0.172393
0.174603
0.174603
0.171114
0.169256
0.171783
0.174603
0.170292
0.171266
0.171157
0.174603
0.172113
0.174603
0.174603
0.174603
1
0.17268
0.173409
0.172613
0.173659
0.174603
0.174603
0.16914
0.171734
0.168708
0.169185
0.17463
0.169129
0.174603
0.169497
0.170423
0.16977
0.169795
0.169922
0.172086
0.174603
0.173855
0.173852
1
1
0.170662
0.171568
0.17041
0.171597
0.170036
0.171468
0.168995
0.170172
0.17463
0.169654
0.170156
0.172297
0.169925
0.169734
0.174603
0.169968
0.170408
0.172857
0.170773
0.171257
0.171755
0.172651
0.172466
0.174603
0.174603
0.174603
1
0.172928
0.171791
0.174603
0.169098
0.168869
0.174603
0.174603
0.169216
0.169855
0.171326
0.17026
0.170657
0.172099
0.171158
0.172162
1
0.174439
0.172157
0.1711
0.172914
0.169943
0.174603
0.174603
0.169584
0.174609
0.169338
0.172875
0.17348
0.169947
0.174603
0.172067
0.169411
0.174603
0.170342
0.171236
0.174602
0.172176
0.17124
0.172764
0.172981
0.173968
0.172504
0.174603
0.174281
0.169587
0.174603
0.174603
0.174603
0.170617
0.172977
0.17417
0.174603
0.170312
0.172295
0.173187
0.174603
0.170168
0.170246
0.171922
0.173448
0.172851
0.173827
0.174603
0.174603
0.171181
0.174603
0.174603
0.174603
0.169678
0.168664
0.173373
0.169904
0.169596
0.171303
0.170435
0.174603
0.170707
0.170739
0.171195
0.171194
0.171225
0.171412
0.174603
0.1721
1
0.171508
0.173815
0.174585
0.171546
0.174603
0.170453
0.169715
0.16927
0.169945
0.169126
0.173691
0.172738
0.170165
0.170416
0.170366
0.171826
0.171974
0.171389
0.173078
0.174603
0.173353
1
0.174603
0.17009
0.171354
0.174608
0.170117
0.170655
0.170551
0.170549
0.171179
0.17189
0.17109
0.171456
0.171271
0.171544
0.171782
0.172596
0.173131
1
0.174603
0.174603
0.170497
0.170213
0.174603
0.17199
0.174603
0.174603
0.169168
0.172267
0.174603
0.171212
0.173473
0.174603
0.170027
0.170169
0.171008
0.17219
0.172371
0.171672
0.17184
0.174603
0.173432
0.174603
0.174603
1
0.173602
0.171537
0.174603
0.170162
0.17206
0.174618
0.174603
0.16991
0.171524
0.172809
0.168879
0.169555
0.169893
0.171148
0.169813
0.170432
0.170694
0.171134
0.169964
0.17002
0.170376
0.171807
0.174571
0.172049
0.172979
0.174603
0.173541
0.174603
0.174603
0.168145
0.174603
0.172017
0.169928
0.170567
0.169182
0.169157
0.169724
0.174603
0.169601
0.169599
0.169715
0.169862
0.172133
0.170937
0.171544
0.174603
1
0.174603
0.17316
0.169544
0.174465
0.169057
0.17011
0.173806
0.174603
0.172001
0.168958
0.170192
0.172149
0.170783
0.170279
0.171692
0.171551
0.174603
0.171835
0.172767
0.172532
1
1
0.172175
0.17288
0.169306
0.17348
0.174603
0.174603
0.169307
0.169826
0.17092
0.172616
0.169782
0.171289
0.170944
0.170584
0.171168
0.173985
0.174603
1
1
1
0.169608
0.171596
0.174603
0.173867
0.172102
0.168774
0.168603
0.174151
0.170609
0.171615
0.174603
0.169412
0.169754
0.170159
0.170628
0.170869
0.171688
0.172976
0.174153
1
0.172727
0.174603
0.174618
0.171164
0.171033
0.16842
0.169098
0.169783
0.171834
0.172121
0.170154
0.17264
0.170067
0.170601
0.170327
0.17167
0.171791
0.170688
0.172837
0.172712
0.173733
1
0.171731
0.174325
0.168957
0.169368
0.174603
0.16991
0.173991
0.170081
0.171439
0.174603
0.16972
0.169795
0.172086
0.169856
0.174603
0.170138
0.170806
0.172603
0.174603
0.173178
0.174156
0.174603
0.174603
0.174603
0.174603
0.174603
0.174603
0.17001
0.174603
0.172593
0.168635
0.168742
0.169271
0.174608
0.169784
0.169926
0.173881
0.169787
0.170005
0.170451
0.170868
0.171963
0.170627
0.172807
0.173107
0.173657
0.174603
0.174414
0.169925
0.174603
0.174603
0.174603
0.171892
0.168937
0.168475
0.171217
0.16916
0.169164
0.169569
0.171185
0.169874
0.170121
0.170127
0.171511
0.170142
0.172005
0.171423
0.17195
0.173206
0.171032
0.171997
0.169407
0.170379
0.1682
0.168564
0.171462
0.170314
0.171282
0.170351
0.170179
0.172145
0.171304
0.172256
0.174603
0.174603
0.173542
0.174603
0.174603
0.173096
0.172522
0.168271
0.172873
0.168603
0.171713
0.169033
0.169129
0.169625
0.170221
0.170711
0.171323
0.171393
0.170701
0.174603
0.171092
0.171286
0.171277
0.174
0.173975
0.173462
0.174603
1
0.170478
0.171416
0.171595
0.169238
0.169737
0.169545
0.169425
0.170178
0.169375
0.169487
0.170057
0.171133
0.171273
0.170436
0.171516
0.172577
0.174603
0.171962
0.17147
0.174518
0.174603
0.174603
0.172327
0.169576
0.174603
0.16974
0.170637
0.174603
0.171644
0.169322
0.170629
0.171086
0.169786
0.169903
0.170062
0.173129
0.171358
0.171555
0.174144
0.172966
0.174603
0.174603
0.174603
0.174603
0.174603
0.170338
0.1726
0.171796
0.1711
0.168437
0.168817
0.169242
0.170789
0.174603
0.169126
0.169753
0.172319
0.169531
0.170157
0.170308
0.17044
0.1702
0.171316
0.171969
0.174603
0.172178
0.172458
1
0.173713
0.174603
0.174603
0.170236
0.171289
0.17323
0.16892
0.169113
0.172416
0.171004
0.170384
0.170358
0.172054
0.170062
0.171334
0.174603
0.171254
0.174603
0.174603
1
1
0.172671
0.168103
0.174603
0.170348
0.169666
0.168898
0.16855
0.168886
0.169697
0.169103
0.169168
0.16925
0.169945
0.171911
0.169824
0.170045
0.170265
0.172611
1
0.174603
0.174603
0.174603
0.169496
0.174603
0.174741
0.169197
0.169919
0.170225
0.171342
0.169212
0.169321
0.170369
0.170164
0.170361
0.170767
0.172242
0.171704
1
1
0.173292
0.172738
0.171362
0.17013
0.171227
0.171424
0.16813
0.171091
0.16877
0.169072
0.169535
0.174603
0.169325
0.16982
0.170681
0.171313
0.171702
1
0.174603
0.17083
0.173353
0.174603
0.174603
0.171789
0.170123
0.169432
0.170054
0.174603
0.174169
0.169008
0.169065
0.170329
0.17231
0.170404
0.172297
0.170923
0.170744
0.170702
0.174603
0.171679
0.173752
0.174603
1
0.171752
0.170299
0.174603
0.171537
0.174603
0.174603
0.16789
0.17182
0.173417
0.174603
0.168825
0.169306
0.174603
0.171814
0.174603
0.168827
0.169637
0.172017
0.169705
0.170167
0.170719
0.174603
0.17436
0.170559
0.174603
0.173731
0.174603
0.170545
0.174603
0.170167
0.171977
0.172668
0.173058
0.174292
0.168911
0.174603
0.169763
0.170024
0.16951
0.173419
0.170231
0.170427
0.17423
0.174603
0.170912
1
1
0.170293
0.174603
0.173095
0.170924
0.172945
0.170235
0.169288
0.1745
0.173574
0.168149
0.172987
0.172497
0.173138
0.169352
0.169982
0.172081
0.168815
0.169533
0.170758
0.16999
0.171352
0.17018
0.170398
0.170408
0.170884
0.171897
0.172509
0.174603
0.172407
1
1
1
1
1
1
1
1
1
1
1
1
1
1
1
1
1
1
1
1
1
1
1
1
1
1
1
1
1
1
1
1
1
1
1
1
1
1
1
1
1
1
1
1
1
1
1
1
1
1
1
1
1
1
1
1
1
1
1
1
1
1
1
1
1
1
1
1
1
1
1
1
1
1
1
1
1
1
1
1
1
1
1
1
1
1
1
1
1
1
1
1
1
1
1
1
1
1
1
1
1
1
1
1
1
1
1
1
1
1
1
1
1
1
1
1
1
1
1
1
1
1
1
1
1
1
1
1
1
1
1
1
1
1
1
1
1
1
1
1
1
1
1
1
1
1
1
1
1
1
1
1
1
1
1
1
1
1
1
1
1
1
1
1
1
1
1
1
1
1
1
1
1
1
1
1
1
1
1
1
1
1
1
1
1
1
1
1
1
1
1
1
1
1
1
1
1
1
1
1
1
1
1
1
1
1
1
1
1
1
1
1
1
1
1
1
1
1
1
1
1
1
1
1
1
1
1
1
1
1
1
1
1
1
1
1
1
1
1
1
1
1
1
1
1
1
1
1
1
1
1
1
1
1
1
1
1
1
1
1
1
1
1
1
1
1
1
1
1
1
1
1
1
1
1
1
1
1
1
1
1
1
1
1
1
1
1
1
1
1
1
0.174603
0.174603
1
0.174603
1
0.174603
0.174603
1
0.174945
1
1
1
0.174603
0.174603
0.174647
0.174745
0.17486
1
1
0.174603
1
0.174603
0.174819
0.174654
0.174916
1
1
0.174653
0.174715
0.174872
0.175396
0.176225
1
1
1
0.174655
0.175406
0.174736
0.174644
0.174669
0.174611
0.174603
0.174689
0.17473
0.174603
0.175343
0.17491
1
1
1
0.174603
0.173558
0.18033
0.174606
0.174806
1
0.174835
0.176487
1
1
0.174603
0.174603
0.174603
0.178198
1
0.174603
0.174628
0.176222
0.174603
0.174603
0.174605
0.174613
1
0.174611
0.174603
0.174281
0.174603
1
1
1
1
0.174603
0.175002
0.175765
0.174603
0.174626
0.174675
0.173242
0.174609
0.174625
0.174603
0.174603
0.172397
0.174603
0.174603
0.175018
0.175747
0.174603
0.174603
0.173668
0.177113
0.174603
0.174603
0.174603
0.174603
0.174603
0.174603
0.174767
0.175144
0.174603
0.174603
0.174603
0.174764
0.174812
0.174648
0.174756
0.174603
0.174908
0.174677
0.174606
0.174603
0.174603
0.174616
0.170416
0.174603
0.17472
1
0.174658
0.174631
0.174622
0.174603
0.17558
0.174911
0.174603
0.174667
0.174603
0.174603
0.174603
0.174603
0.174603
0.174603
0.174603
0.174657
0.174866
0.174624
0.174603
0.174706
0.174762
0.174603
0.176962
0.174603
0.175202
1
0.174639
0.175507
0.174858
0.174603
0.174675
0.174603
0.174603
0.174603
0.171606
0.174603
0.174617
0.174605
0.174603
0.174603
0.174702
0.175037
0.176456
0.175242
0.174609
0.174715
0.174603
0.174603
0.174603
1
1
1
1
1
0.174659
0.174786
0.173139
0.174603
0.174603
0.175099
1
0.174603
0.174646
0.174603
0.174603
0.17618
0.174603
0.174937
0.174603
0.172226
0.174603
0.174631
0.174625
0.174603
0.174603
0.177642
0.174603
0.175511
0.174603
0.174603
0.174603
0.174603
0.174618
0.174603
0.174603
0.174607
1
0.174603
0.174603
0.174728
0.174603
0.174691
0.174624
0.17496
0.173142
0.174637
0.174603
0.174633
1
0.174682
0.174666
0.17465
0.174603
0.174603
0.175072
0.174603
0.174603
0.174603
0.174603
0.173056
0.174396
0.174603
0.174619
0.17461
0.174603
0.174603
1
0.174603
0.174603
0.179078
0.174603
0.174603
0.174603
0.174603
0.175106
0.174169
0.174603
0.174603
0.174603
0.174603
0.174603
0.174643
0.174603
1
0.174603
0.174603
0.174767
0.174603
0.174603
0.175047
0.175155
0.174685
0.174611
0.174603
0.172519
0.175334
0.174603
0.174554
0.174603
0.174648
1
0.174648
0.174684
0.174951
0.175103
0.174603
0.174603
0.170253
0.176299
0.172732
0.170961
0.173295
0.174603
0.17226
0.174603
0.174603
0.174268
0.174603
0.174603
0.174603
0.174603
0.174603
0.174603
1
1
0.174623
0.175203
0.175173
0.171922
0.174603
0.174619
0.171626
0.173937
0.172978
0.174603
0.174603
0.17426
0.174603
0.174603
0.174603
0.174603
0.174603
0.174606
0.174603
0.172173
0.174326
0.174603
0.174603
0.173475
0.174603
0.174603
0.174657
0.174603
0.174603
0.173182
0.174603
0.174603
0.174603
0.174603
0.174603
0.174603
0.174603
0.174603
0.174603
0.174603
1
1
0.174728
0.174648
0.174603
0.174646
0.17695
0.174603
0.174603
0.174603
0.174603
0.172045
0.172641
0.174646
0.174603
0.17275
0.174451
0.173052
0.174603
0.174603
0.174603
0.174603
0.174603
0.174603
0.174603
0.174603
0.174603
0.174615
0.174638
0.174603
0.174631
0.174637
0.174626
0.174603
0.174603
0.174603
0.171139
0.175593
0.174046
0.17466
0.173263
0.171867
0.173718
0.172871
0.174842
0.174603
0.174603
0.174603
0.174603
0.174604
0.174603
0.174603
0.174633
0.174603
0.174618
0.174617
0.174979
0.173002
0.172905
0.171202
0.174293
0.17169
0.174343
0.174603
0.174603
0.174603
0.173224
0.174603
0.174603
0.174603
0.174603
0.173239
0.174603
0.174603
0.174603
0.174603
0.174603
0.174603
0.174603
0.174603
0.174603
0.174603
0.17462
1
0.174603
0.175093
0.174603
0.172467
0.173267
0.174174
0.172275
0.173566
0.174603
0.174617
0.174603
0.174603
0.174603
0.174603
0.174603
0.174609
0.174603
0.174603
0.174603
0.174603
1
1
0.174603
0.174603
0.174941
0.175298
0.174603
0.174603
0.173654
0.174603
0.17073
0.174603
0.174603
0.174603
1
1
1
1
0.174609
0.174603
0.174721
0.174676
0.174603
0.173678
0.173472
0.172602
0.174603
0.174235
0.172786
0.174603
0.173728
0.174603
0.174603
0.174603
0.174603
0.174603
0.174603
1
1
1
0.174683
0.174603
0.174603
0.174603
0.174603
0.173604
0.172075
0.171469
0.174603
0.174603
0.174603
0.174702
0.174603
0.173331
0.174603
0.174603
0.174603
0.174603
0.174647
0.174603
0.174603
0.174633
1
1
0.174603
0.175058
0.175038
0.174634
0.174627
0.170863
0.174603
0.171504
0.171698
0.173325
0.174075
0.174603
0.174603
0.174603
0.174654
0.174603
0.174603
0.174603
0.174607
1
0.174728
0.175004
0.174608
0.172673
0.172326
0.174603
0.174603
0.17306
0.172949
0.174503
0.174603
0.174603
0.174603
0.174603
1
1
0.174603
0.174603
0.174603
0.174926
0.174603
0.174603
0.172426
0.17473
0.172892
0.174563
0.173278
0.174603
0.174603
0.174603
0.173068
0.174603
0.174603
0.174603
0.174603
0.174603
0.174603
0.174603
0.174603
1
0.174603
0.175581
0.175157
0.175112
0.174603
0.174603
0.175002
0.174603
0.174399
0.174603
0.172331
0.172634
0.174178
0.174603
0.174603
0.174618
0.174603
1
0.174603
0.17463
0.174754
0.174445
0.174693
0.174612
0.174615
0.174634
0.174603
0.174742
0.174812
0.174603
0.174603
0.174603
0.174603
0.172287
0.174603
0.174377
0.174603
0.174603
0.174603
0.174603
0.174603
1
1
1
0.174603
0.174603
0.174417
0.174638
0.174603
0.171863
0.174171
0.174644
0.173723
0.174603
0.174603
0.174603
0.174603
0.174603
0.174603
0.174603
1
1
1
0.174614
0.17523
0.174603
0.172247
0.174603
0.174603
0.171323
0.17462
0.173845
0.174613
0.172217
0.171532
0.173707
0.174282
0.173529
0.174603
0.1746
0.174603
0.174603
0.174603
0.174603
0.174603
1
0.174478
0.175124
0.174603
0.174607
0.174603
0.172843
0.174603
0.174603
0.172278
0.174603
0.174603
0.173671
0.174603
0.174603
0.174603
0.174603
0.174603
0.174603
0.174603
0.174603
0.174631
1
1
0.174603
0.174603
0.174618
0.174861
0.174603
0.175132
0.174603
0.174924
0.173337
0.174618
0.174603
0.173643
0.1726
0.174603
0.174603
0.174603
0.174612
0.174603
0.174616
0.174603
0.174642
0.174603
0.174689
0.174603
0.174603
0.171191
0.171048
0.174603
0.17262
0.172793
0.174603
0.174603
0.173469
0.173452
0.174603
0.174603
0.174603
0.174603
0.174603
1
1
0.174603
0.1758
0.174603
0.174603
0.174603
0.170917
0.174603
0.174603
0.171896
0.174603
0.174629
0.17142
0.174625
0.174666
0.174603
0.174469
0.174628
0.174603
0.174603
1
1
0.174605
0.174623
0.17377
0.174745
0.174628
0.174744
0.172525
0.171606
0.170614
0.174173
0.174774
0.171636
0.174603
0.173479
0.174603
0.174614
0.174603
1
1
0.174635
0.174603
0.17472
0.174603
0.173163
0.176099
0.174603
0.174603
0.174603
0.173518
0.174254
0.174603
0.174603
0.17324
0.172951
0.174098
0.174603
0.174603
0.174617
0.174603
0.174603
0.174603
0.174603
0.169354
0.174609
0.174746
0.174638
0.171269
0.172079
0.170477
0.174603
0.174603
0.174603
0.174603
0.174603
0.173859
0.174603
0.174603
0.174603
0.174603
0.174603
0.174603
0.174603
1
1
1
0.174603
0.174618
0.170696
0.174875
0.174603
0.170302
0.170894
0.172722
0.174603
0.174539
0.174603
0.174608
0.174603
0.174603
0.174605
1
0.174603
0.174603
0.174662
0.174603
0.174603
0.172884
0.171061
0.171105
0.170999
0.171019
0.172656
0.172469
0.171369
0.171642
0.171832
0.174551
0.17465
0.174306
0.174603
0.174343
0.174603
0.174603
0.174603
0.174603
0.174603
0.174603
0.174603
0.174603
0.174603
0.174609
0.174616
0.174603
1
0.174603
0.174656
0.174631
0.174611
0.174603
0.174603
0.174627
0.174603
0.174605
0.174278
0.17218
0.170955
0.174451
0.174603
0.173788
0.173862
0.174603
0.174603
0.174603
0.174172
0.174603
0.174603
0.174603
1
0.174603
0.174603
0.172629
0.174603
0.171073
0.173542
0.174603
0.174603
0.173747
0.17339
0.174642
0.174603
0.174603
0.174603
0.174603
1
0.174603
0.174613
0.174628
0.175295
0.174839
0.174603
0.174603
0.174605
0.170571
0.171728
0.173517
0.174603
0.174603
0.174603
0.174049
0.172694
0.172608
0.174603
0.174603
0.174603
0.174603
0.174603
0.174603
0.174603
0.174603
0.174603
0.174603
0.174603
1
0.174564
0.175397
0.174706
0.175069
0.174617
0.174603
0.174603
0.171942
0.174476
0.174603
0.174603
0.174603
0.174603
0.174603
1
0.174603
0.17462
0.174603
0.176376
0.175333
0.174603
0.174635
0.174513
0.171813
0.170652
0.172773
0.17461
0.174604
0.174603
0.174603
0.174603
0.174603
0.174603
0.174603
0.174603
0.174603
0.174603
0.174603
0.174603
0.174605
0.1748
0.174603
0.174615
0.172501
0.174603
0.171905
0.171412
0.172338
0.173161
0.174274
0.173806
0.174603
0.174603
0.174603
0.174603
0.174603
0.174603
1
1
0.174603
0.174603
0.174603
0.174603
0.174603
0.174603
0.170799
0.174603
0.177697
0.175198
0.174603
0.175266
0.170531
0.173522
0.174603
0.174603
0.174603
0.171584
0.174734
0.174603
0.174342
0.173131
0.174603
0.174603
0.174108
0.174428
0.174603
0.174643
1
0.174603
0.174603
0.174603
0.170713
0.171028
0.172344
0.174603
0.17153
0.173626
0.174603
0.174603
0.174603
0.174366
0.174603
0.173356
0.174603
0.174603
0.174629
0.174603
0.17462
0.174603
0.174603
1
0.174603
0.174603
0.174603
0.174603
0.174603
0.174616
0.174683
0.172008
0.170257
0.174603
0.174603
0.172752
0.172523
0.174603
0.174603
0.174227
0.174603
0.174603
0.174603
0.174603
0.174603
0.174603
0.174603
1
1
0.173479
0.174603
0.174603
0.174603
0.171648
0.172388
0.171313
0.173457
0.174603
0.170869
0.173753
0.172646
0.172313
0.1725
0.17397
0.174603
0.174603
0.174603
0.174603
0.174603
0.174603
0.174603
0.174603
0.174603
0.174603
0.17519
0.172755
0.17485
0.1739
0.174603
0.169954
0.174046
0.174603
0.174603
0.174603
0.174603
0.17179
0.173129
0.171099
0.17426
0.174603
0.17427
0.17341
0.174603
0.174603
0.174603
1
1
1
0.172738
0.174624
0.173137
0.172476
0.173003
0.172158
0.172483
0.174603
0.173781
0.174603
0.174603
0.174603
0.174814
0.174603
0.174603
0.174617
0.174603
0.174603
0.174615
0.174379
0.174603
0.170035
0.172854
0.174603
0.173849
0.171736
0.171734
0.174603
0.174603
0.174603
0.174603
0.174603
0.174603
0.174615
0.174603
0.174755
0.174637
0.174625
0.172942
0.174544
0.174603
0.174603
0.170181
0.174604
0.174603
0.172147
0.173687
0.174603
0.174603
0.174603
0.174603
1
0.174616
0.174714
0.175205
0.174678
0.171683
0.172174
0.174603
0.170572
0.172216
0.174603
0.173977
0.170969
0.171595
0.174603
0.173731
0.174611
0.174576
0.174603
0.174603
0.174603
0.174603
0.174603
0.170772
0.174603
0.170042
0.170502
0.174603
0.174603
0.172204
0.174603
0.174603
0.17429
0.173184
0.174603
0.174603
0.174603
0.174603
0.174603
0.174603
0.174603
1
0.17119
0.174603
0.174603
0.174603
0.173145
0.174603
0.174603
0.172755
0.174575
0.174603
0.173728
0.174603
0.172383
0.174031
0.174603
0.172807
0.173125
0.173525
0.174002
0.174208
0.174603
0.174603
0.174603
0.174603
1
0.174603
0.174603
0.174603
0.174603
0.174603
0.172887
0.17461
0.173211
0.172486
0.17102
0.171574
0.173088
0.172175
0.171274
0.171922
0.173462
0.174603
0.174603
0.174603
0.174603
0.174785
0.171788
0.172156
0.174603
0.174603
0.170695
0.17152
0.174603
0.170777
0.171165
0.172083
0.171973
0.171989
0.172996
0.174603
0.174603
0.172539
0.174484
0.174603
0.174603
0.174603
0.174603
0.174603
0.174603
0.173932
0.170687
0.174364
0.174603
0.174603
0.172497
0.174603
0.170894
0.17469
0.172073
0.172628
1
1
1
0.174603
0.174603
0.17478
0.169672
0.170195
0.173787
0.170504
0.171627
0.171158
0.171286
0.174603
0.174023
0.174603
0.174603
0.174603
0.174603
0.174603
0.174603
0.174603
0.174603
0.174629
0.174607
0.174603
0.174603
0.174011
0.174603
0.174603
0.172357
0.174603
0.174603
0.17336
0.174603
0.174159
0.17116
0.171454
0.174603
0.174603
0.174603
0.174603
0.174603
0.174603
1
0.174603
0.172145
0.174603
0.174603
0.174624
0.174603
0.174603
0.174603
0.174603
0.173984
0.171264
0.171093
0.172355
0.174603
0.171468
0.172198
0.172251
0.174603
0.172684
0.174603
0.174603
0.174603
1
0.174603
0.174603
0.17474
0.174666
0.170063
0.173338
0.169459
0.174604
0.174603
0.174603
0.174603
0.172072
0.171452
0.17364
0.171989
0.173276
0.174603
0.172896
0.173408
0.174603
0.174603
0.174603
0.174603
0.174603
1
1
0.174603
0.174648
0.174681
0.174603
0.174603
0.174487
0.172914
0.174603
0.171373
0.171885
0.172591
0.171244
0.172919
0.171469
0.171956
0.172174
0.172385
0.174603
0.174603
0.174603
0.174603
0.174603
0.174603
0.174603
0.174603
0.171162
0.172074
0.174621
0.174603
0.174603
0.174612
0.173206
0.173791
0.171816
0.172384
0.174603
0.174603
0.174603
1
0.174603
0.174603
0.174632
0.174603
0.174605
0.174586
0.171701
0.174473
0.170515
0.170356
0.173272
0.174054
0.170564
0.172257
0.171226
0.17243
0.17259
0.171612
0.174603
0.174605
0.17331
0.174139
0.174603
0.173013
0.174603
0.174603
0.174603
1
0.174603
0.174603
0.174603
0.174603
0.169899
0.174223
0.174603
0.172163
0.174603
0.174603
0.169862
0.17462
0.174603
0.170261
0.171506
0.174603
0.174603
0.174608
0.173835
0.174603
0.174005
0.174603
1
1
1
1
0.174603
0.174603
0.174497
0.174463
0.174609
0.174438
0.171391
0.171266
0.170628
0.171466
0.173616
0.174603
0.174603
0.174603
0.174603
0.174603
0.174603
0.174603
0.174603
0.173167
0.174603
0.174605
0.171936
0.174603
0.170508
0.174603
0.17099
0.172075
0.174603
0.173009
0.173401
0.174603
0.174603
0.174603
1
1
0.174389
0.174603
0.174603
0.174612
0.174713
0.174603
0.173101
0.174649
0.169577
0.174603
0.174603
0.174603
0.170156
0.170546
0.174607
0.174603
0.171548
0.174603
0.171536
0.174603
0.174603
0.174603
0.173519
0.173129
0.172359
0.174516
0.174603
0.174603
0.174603
0.174603
1
1
0.174603
0.174603
0.174603
0.174603
0.174644
0.174603
0.173084
0.174603
0.171128
0.17471
0.17374
0.173647
0.170662
0.171028
0.171136
0.171165
0.171893
0.17198
0.173472
0.174603
0.174603
1
0.174603
0.174603
0.174603
0.174603
0.174603
0.174613
0.174603
0.1695
0.171543
0.173965
0.172055
0.172338
0.171152
0.172317
0.172636
0.174603
0.173717
0.174603
0.174603
0.174603
1
1
0.174283
0.174306
0.174114
0.173682
0.170019
0.172813
0.170288
0.170995
0.172608
0.170724
0.171314
0.171509
0.171859
0.1728
0.172301
0.17294
0.174603
0.174603
0.174603
0.174378
0.174603
0.174603
0.174603
0.174603
0.174603
0.174603
0.174603
0.174658
0.174605
0.174603
0.171982
0.174603
0.172187
0.170861
0.17154
0.171899
0.174603
0.174603
0.174061
0.174019
0.174603
0.17475
0.174605
0.174718
0.174819
0.174706
0.171836
0.172422
0.174603
0.172531
0.174604
0.173674
0.173519
0.171393
0.174603
0.174603
0.170562
0.170879
0.171443
0.171173
0.17171
0.174603
0.174603
1
0.174603
0.174603
0.169559
0.172099
0.174603
0.174134
0.171643
0.170636
0.171002
0.174583
0.171498
0.174603
0.174603
0.171736
0.172737
0.174603
0.174603
0.174603
1
0.174603
0.174603
0.173236
0.174604
0.174603
0.174603
0.171358
0.174603
0.174603
0.174603
0.170629
0.172368
0.172139
0.171831
0.1737
0.174603
0.174431
0.174603
0.174603
0.174603
0.174633
0.174603
0.174603
0.174428
0.174603
0.174603
0.171778
0.170453
0.172619
0.171916
0.172062
0.174603
0.1725
0.174603
0.174603
0.173537
0.174603
0.174603
0.174603
0.174645
0.171326
0.173308
0.174603
0.174603
0.174159
0.174688
0.174603
0.171048
0.172884
0.174603
0.171301
0.172692
0.174603
0.171782