# x y z d
-0.001447785476 -0.2184622554 -0.2190297429 0.0001188271048
