# x y z d
-0.0006317356818 -0.2126531333 -0.1516561412 0.0001188271048
