# x y z d
0.003030354133 -0.2255324855 -0.9260106262 0.0001188271048
