# x y z d
0.0008536670284 -0.2194608194 -0.6348218102 0.0001188271048
