# x y z d
0.009124420627 -0.2646768232 -0.2310036053 3.828268675e-05
