# x y z d
-0.005752190584 -0.2234147644 -1.38652081 0.0001188271048
