# x y z d
-0.001057447243 -0.2187779585 -0.4416891892 0.0001188271048
