# x y z d
-0.001315638839 -0.2178317913 -0.2076186417 0.0001188271048
