# x y z d
-0.005046346849 -0.2247822622 -1.339852677 0.0001188271048
