# x y z d
-0.006307611392 -0.2635403013 -0.3831048619 3.828268675e-05
