# x y z d
0.002995827817 -0.2258674843 -0.9407406233 0.0001188271048
