# x y z d
-0.0007424016596 -0.218865677 -0.4945238593 0.0001188271048
