# x y z d
0.002435596174 -0.2216918912 -0.7714985529 0.0001188271048
