# x y z d
-0.001849618427 -0.2192606798 -0.3098863723 0.0001188271048
