# x y z d
-0.006695560298 -0.2204948692 -1.504606881 0.0001188271048
