# x y z d
4.373161262e-05 -0.2276536261 -1.101410945 0.0001188271048
