# x y z d
-0.02217693531 -0.2670872213 -0.5585443814 3.828268675e-05
