# x y z d
0.001136936298 -0.2272746734 -1.055498372 0.0001188271048
