# x y z d
0.0006577735301 -0.2192393801 -0.6176881888 0.0001188271048
