# x y z d
0.002888601014 -0.2261231488 -0.9557867801 0.0001188271048
