# x y z d
-0.0005846243677 -0.2621470412 -0.3459031335 3.828268675e-05
