# x y z d
-0.0120640843 -0.2654363179 -0.4353686208 3.828268675e-05
