# x y z d
-0.02933433341 -0.2671554254 -0.6515147115 3.828268675e-05
