# x y z d
-0.0007935669969 -0.2144418852 -0.1649422529 0.0001188271048
