# x y z d
-0.00657243164 -0.2211470242 -1.474123365 0.0001188271048
