# x y z d
0.002109655532 -0.2211950757 -0.7391184863 0.0001188271048
