# x y z d
-0.01749462439 -0.2668963627 -0.499643826 3.828268675e-05
