# x y z d
-0.001452398141 -0.2189469189 -0.4007821306 0.0001188271048
