# x y z d
-0.0008688947298 -0.2188726187 -0.4775821194 0.0001188271048
