# x y z d
-0.001057385726 -0.216423233 -0.1869364616 0.0001188271048
