# x y z d
-0.03794833113 -0.2635907284 -0.7836156325 3.828268675e-05
