# x y z d
-0.001537819961 -0.2189399541 -0.3910599757 0.0001188271048
