# x y z d
0.003016638382 -0.224879122 -0.9018341535 0.0001188271048
