# x y z d
-0.001701058496 -0.2194623095 -0.2721478483 0.0001188271048
