# x y z d
-0.000571238104 -0.2188516696 -0.5160510727 0.0001188271048
