# x y z d
-0.0006854871513 -0.2188539688 -0.5017379421 0.0001188271048
