# x y z d
-0.001557723683 -0.2189749417 -0.2304503284 0.0001188271048
