# x y z d
-0.0002990833336 -0.2073667193 -0.1263887376 0.0001188271048
