# x y z d
-0.03653334979 -0.264809178 -0.7610640428 3.828268675e-05
