# x y z d
-2.827187704e-06 -0.01117430198 -0.001196607615 3.828268675e-05
