# x y z d
-0.0008071167852 -0.2145686372 -0.166101935 0.0001188271048
