# x y z d
0.0009337670398 -0.2195536265 -0.642277967 0.0001188271048
