# x y z d
0.0002203238963 -0.2191512652 -0.5837994989 0.0001188271048
