# x y z d
3.30870999e-06 -0.01777867019 -0.001826919975 3.828268675e-05
