# x y z d
-0.001115058801 -0.2167643746 -0.1915456437 0.0001188271048
