# x y z d
-0.00165683258 -0.2194705005 -0.2559281046 0.0001188271048
