# x y z d
-0.004545030472 -0.2253582376 -1.313329782 0.0001188271048
