# x y z d
0.003011347689 -0.2246055492 -0.892081809 0.0001188271048
