# x y z d
-0.006642585996 -0.2207998226 -1.489176971 0.0001188271048
