# x y z d
-0.01007851613 -0.1637299799 -0.01155825672 3.828268675e-05
