/*--------------------------------*- C++ -*----------------------------------*\
| =========                 |                                                 |
| \\      /  F ield         | OpenFOAM: The Open Source CFD Toolbox           |
|  \\    /   O peration     | Version:  v1906                                 |
|   \\  /    A nd           | Web:      www.OpenFOAM.com                      |
|    \\/     M anipulation  |                                                 |
\*---------------------------------------------------------------------------*/
FoamFile
{
    version     2.0;
    format      ascii;
    class       volScalarField;
    location    "2.83";
    object      a;
}
// * * * * * * * * * * * * * * * * * * * * * * * * * * * * * * * * * * * * * //

dimensions      [0 -1 0 0 0 0 0];


internalField   nonuniform List<scalar> 
26400
(
0.516791
0.529428
0.537252
0.512496
0.548437
0.522153
0.533229
0.521058
0.511734
0.544538
0.520909
0.545118
0.506313
0.506901
0.520952
0.536185
0.51371
0.521891
0.56533
0.529013
0.51221
0.504846
0.520213
0.551242
0.505925
0.522645
0.526697
0.513131
0.520531
0.508233
0.515417
0.521232
0.536941
0.514397
0.507532
0.546817
0.518863
0.530484
0.5
0.5
0.5
0.525607
0.5
0.504365
0.5
0.5
0.5
0.5
0.513098
0.5
0.5
0.5
0.5
0.5
0.5
0.5
0.5
0.5
0.5
0.5
0.532979
0.54629
0.556583
0.536954
0.512306
0.522588
0.546561
0.515736
0.515046
0.511982
0.5311
0.520975
0.526018
0.512741
0.518873
0.501779
0.512697
0.505521
0.510028
0.536478
0.528317
0.503016
0.533272
0.511985
0.505546
0.5
0.527815
0.501632
0.508999
0.502037
0.526825
0.524052
0.5
0.512184
0.522331
0.5
0.5
0.544374
0.5208
0.531748
0.513473
0.5
0.500285
0.527205
0.5
0.5
0.5
0.520079
0.508279
0.5
0.5
0.5
0.5
0.5
0.5
0.5
0.5
0.5
0.5
0.5
0.520589
0.511128
0.525813
0.557781
0.5
0.539667
0.53017
0.521219
0.516364
0.539855
0.5215
0.5
0.523132
0.543993
0.554243
0.541836
0.527015
0.523978
0.524931
0.507008
0.509346
0.510648
0.5
0.518926
0.528732
0.515019
0.523715
0.509846
0.524408
0.511503
0.502681
0.508651
0.517138
0.5
0.5
0.525398
0.545248
0.531993
0.513162
0.52561
0.508966
0.524057
0.523918
0.51271
0.519677
0.513682
0.5
0.5
0.5
0.5
0.5
0.5
0.5
0.5
0.5
0.5
0.5
0.5
0.5
0.5
0.509553
0.51082
0.525797
0.51163
0.528781
0.534885
0.531843
0.553697
0.512344
0.530812
0.53511
0.506986
0.518679
0.528289
0.509502
0.520605
0.504078
0.544994
0.5
0.519463
0.506062
0.534559
0.507577
0.511985
0.528689
0.5
0.508733
0.508905
0.523363
0.519518
0.504761
0.5
0.521626
0.51947
0.531926
0.50954
0.523825
0.50766
0.5
0.520825
0.510004
0.504277
0.528053
0.539326
0.5
0.503923
0.529224
0.514141
0.5
0.5
0.5
0.5
0.5
0.5
0.5
0.5
0.5
0.5
0.5
0.5
0.536614
0.521155
0.516704
0.534344
0.518151
0.53164
0.526574
0.556
0.507976
0.521415
0.534763
0.506826
0.5
0.531929
0.538646
0.538147
0.507542
0.506134
0.550798
0.507541
0.521267
0.508295
0.530416
0.526785
0.513037
0.538507
0.534778
0.505059
0.524731
0.522205
0.54335
0.515359
0.52528
0.528904
0.503404
0.533014
0.509635
0.5
0.522948
0.5
0.511959
0.508373
0.529424
0.550722
0.506936
0.513194
0.5
0.502951
0.5
0.5
0.5
0.5
0.5
0.5
0.5
0.5
0.5
0.5
0.5
0.5
0.534798
0.560105
0.515751
0.518146
0.550382
0.548536
0.545051
0.555425
0.506338
0.508927
0.535418
0.520496
0.5
0.521885
0.521117
0.511925
0.5
0.5
0.504866
0.532598
0.539219
0.550365
0.513064
0.515178
0.5
0.5
0.523673
0.5
0.504124
0.531064
0.509164
0.509241
0.545037
0.5
0.507774
0.547667
0.502193
0.516407
0.512398
0.516359
0.502716
0.536148
0.518751
0.5
0.527171
0.530355
0.5
0.5
0.5
0.5
0.5
0.5
0.5
0.5
0.5
0.5
0.5
0.5
0.5
0.5
0.534451
0.54681
0.520723
0.507291
0.50261
0.538068
0.517162
0.533919
0.527096
0.519196
0.518432
0.559344
0.538078
0.514848
0.519523
0.508908
0.521759
0.506988
0.506109
0.524804
0.508092
0.543756
0.5
0.5
0.532265
0.534703
0.522035
0.5
0.507856
0.507127
0.522304
0.510832
0.517217
0.514038
0.529391
0.539912
0.511029
0.5
0.501926
0.516075
0.511671
0.5
0.51462
0.503714
0.527446
0.5
0.5
0.5
0.534679
0.5
0.5
0.5
0.5
0.5
0.5
0.5
0.5
0.5
0.5
0.5
0.513105
0.538382
0.540545
0.531938
0.521158
0.529872
0.554962
0.533752
0.520864
0.524939
0.52322
0.518917
0.518184
0.541066
0.541441
0.517665
0.527099
0.506526
0.505583
0.515757
0.532157
0.5
0.504677
0.542736
0.501774
0.516175
0.572541
0.518665
0.5
0.502694
0.501253
0.52388
0.55512
0.531799
0.52702
0.509912
0.543341
0.534759
0.518381
0.561316
0.507678
0.513586
0.524889
0.510266
0.505924
0.5
0.5
0.5
0.502105
0.5
0.5
0.5
0.5
0.5
0.5
0.5
0.5
0.5
0.5
0.5
0.507729
0.522102
0.544042
0.531448
0.51129
0.529434
0.519125
0.513202
0.508287
0.524294
0.524192
0.540356
0.506779
0.586357
0.548803
0.544343
0.54102
0.526826
0.500584
0.512929
0.5
0.525965
0.509872
0.545394
0.5
0.523099
0.5
0.523577
0.511889
0.508733
0.533375
0.503703
0.5251
0.549235
0.5
0.506035
0.5
0.511492
0.51082
0.532038
0.51353
0.52089
0.532425
0.513884
0.510421
0.5
0.5
0.5
0.526784
0.5
0.5
0.5
0.5
0.5
0.5
0.5
0.5
0.5
0.5
0.5
0.51952
0.531477
0.526563
0.500302
0.506606
0.526431
0.538769
0.582163
0.525969
0.502258
0.54058
0.515556
0.518286
0.529449
0.536527
0.514257
0.517295
0.530404
0.514347
0.520057
0.500413
0.50196
0.539131
0.513744
0.528179
0.5
0.506446
0.536308
0.518865
0.542328
0.508386
0.524685
0.511864
0.536445
0.523922
0.534689
0.521929
0.509575
0.5
0.505816
0.5
0.51257
0.509127
0.513869
0.543666
0.519305
0.538696
0.519117
0.5
0.5
0.5
0.5
0.5
0.5
0.5
0.5
0.5
0.5
0.5
0.5
0.527142
0.536202
0.504074
0.511245
0.546866
0.511916
0.558129
0.525464
0.524371
0.520309
0.516226
0.520255
0.525692
0.527878
0.521019
0.5
0.506901
0.521549
0.517104
0.524102
0.520323
0.510089
0.529759
0.523583
0.503315
0.529178
0.508605
0.517316
0.512626
0.535362
0.511834
0.506423
0.5
0.501331
0.508947
0.5
0.513182
0.5
0.5131
0.527587
0.52346
0.5
0.531135
0.5
0.5
0.518245
0.511399
0.517956
0.5
0.5
0.5
0.5
0.5
0.5
0.5
0.5
0.5
0.5
0.5
0.5
0.53705
0.519807
0.533793
0.518964
0.521696
0.51254
0.511127
0.5
0.559617
0.538195
0.525895
0.503576
0.530832
0.542537
0.526161
0.517403
0.50769
0.536085
0.515968
0.520335
0.505576
0.528909
0.53952
0.51123
0.5
0.519068
0.532835
0.529033
0.540503
0.519942
0.506993
0.535872
0.507773
0.523585
0.529683
0.50311
0.522286
0.509481
0.521471
0.501125
0.515558
0.5
0.511925
0.5
0.5
0.516038
0.50688
0.5
0.5
0.5
0.520514
0.5
0.5
0.5
0.5
0.5
0.5
0.5
0.5
0.5
0.525324
0.518674
0.540604
0.569702
0.521001
0.536666
0.528472
0.507504
0.529743
0.509318
0.555099
0.502689
0.5
0.525433
0.514025
0.516929
0.525047
0.506895
0.552319
0.512753
0.50505
0.505689
0.525467
0.5
0.507989
0.51709
0.526805
0.510451
0.532493
0.527428
0.500371
0.518953
0.522127
0.504195
0.536158
0.508504
0.526773
0.5
0.545942
0.509443
0.525456
0.512866
0.5
0.512858
0.5
0.5
0.508936
0.5
0.5
0.5
0.5
0.5
0.5
0.5
0.5
0.5
0.5
0.5
0.5
0.5
0.543792
0.535819
0.522145
0.53013
0.546896
0.549467
0.511315
0.513681
0.518604
0.548429
0.525539
0.506741
0.537719
0.528595
0.508023
0.51063
0.506126
0.507176
0.530498
0.537796
0.520108
0.513399
0.510924
0.508904
0.507597
0.518574
0.500822
0.507456
0.5
0.5
0.509452
0.502273
0.512906
0.513829
0.514442
0.526865
0.53591
0.518121
0.521551
0.506015
0.5
0.5
0.558982
0.5
0.514676
0.5
0.5
0.5
0.5
0.5
0.5
0.5
0.5
0.5
0.5
0.5
0.5
0.5
0.5
0.5
0.529054
0.533213
0.516317
0.515007
0.520586
0.539028
0.559243
0.523816
0.539966
0.521424
0.547948
0.525991
0.501853
0.555224
0.507597
0.531344
0.522437
0.517123
0.5
0.500266
0.523487
0.540459
0.51194
0.520806
0.524325
0.519885
0.512844
0.538253
0.531213
0.521649
0.509537
0.531532
0.5
0.509368
0.527821
0.534713
0.542702
0.516336
0.519586
0.522383
0.526591
0.535371
0.545689
0.516793
0.5
0.5
0.5
0.5
0.5
0.5
0.5
0.5
0.5
0.5
0.5
0.5
0.5
0.5
0.5
0.5
0.556187
0.536241
0.51578
0.507801
0.509574
0.524653
0.543757
0.505811
0.56153
0.5
0.539204
0.555378
0.514925
0.519315
0.5086
0.538378
0.561317
0.522637
0.520526
0.552102
0.515135
0.528807
0.52654
0.50219
0.509119
0.508873
0.520125
0.524877
0.510053
0.503029
0.501457
0.523294
0.509389
0.509505
0.508408
0.517373
0.5
0.525956
0.509226
0.525357
0.5
0.524001
0.50071
0.5
0.5
0.5
0.5
0.5
0.5
0.5
0.5
0.5
0.5
0.5
0.5
0.5
0.5
0.5
0.5
0.5
0.517811
0.508049
0.50566
0.559847
0.520093
0.504446
0.522001
0.518005
0.538039
0.532848
0.538314
0.53894
0.521487
0.525833
0.507469
0.50918
0.5
0.527738
0.509325
0.500336
0.517701
0.516958
0.540071
0.513355
0.515862
0.519248
0.541598
0.534923
0.5
0.511816
0.513395
0.508483
0.522228
0.518483
0.506733
0.515813
0.512022
0.503976
0.523432
0.512868
0.5
0.51106
0.526102
0.5
0.5
0.506718
0.5
0.50252
0.514985
0.5
0.5
0.5
0.5
0.5
0.5
0.5
0.5
0.5
0.5
0.5
0.523126
0.521791
0.510588
0.535092
0.52408
0.528244
0.535189
0.529855
0.537999
0.545343
0.51266
0.523769
0.522697
0.525306
0.546751
0.552009
0.50942
0.540486
0.53408
0.530581
0.518962
0.509976
0.50488
0.5
0.512991
0.517546
0.522127
0.517407
0.523154
0.522973
0.508789
0.517005
0.50881
0.533278
0.509985
0.547405
0.509147
0.519506
0.50719
0.523382
0.505293
0.5
0.506451
0.550546
0.5
0.572727
0.5
0.5
0.5
0.538624
0.505247
0.5
0.5
0.5
0.5
0.5
0.5
0.5
0.5
0.5
0.524707
0.509312
0.540237
0.520555
0.529566
0.519323
0.552508
0.519193
0.535515
0.531771
0.521608
0.556861
0.500212
0.528867
0.523471
0.515905
0.516604
0.547397
0.520586
0.5
0.512423
0.504359
0.560654
0.511795
0.523279
0.5
0.502888
0.516909
0.509082
0.503669
0.516109
0.514329
0.529423
0.515956
0.51044
0.520405
0.509089
0.525409
0.512613
0.517659
0.503721
0.511353
0.504149
0.51279
0.500983
0.5
0.5
0.5
0.5
0.5
0.518715
0.5
0.5
0.5
0.5
0.5
0.5
0.5
0.5
0.5
0.522401
0.53599
0.515873
0.510094
0.514536
0.533447
0.539186
0.519508
0.538603
0.514505
0.556478
0.542166
0.52327
0.505831
0.533859
0.521483
0.535915
0.500517
0.536106
0.507695
0.535612
0.539136
0.531365
0.502598
0.512324
0.512983
0.5
0.52002
0.50556
0.507368
0.51929
0.523824
0.5
0.5
0.514348
0.517344
0.530654
0.528889
0.5008
0.540346
0.522865
0.5
0.5
0.510538
0.5
0.507111
0.5018
0.5
0.506021
0.5
0.5
0.5
0.5
0.5
0.5
0.5
0.5
0.5
0.5
0.5
0.521575
0.515783
0.546636
0.550974
0.526762
0.5
0.529562
0.534348
0.534479
0.554185
0.50859
0.528544
0.51077
0.533149
0.522743
0.522521
0.51964
0.515181
0.524191
0.513109
0.507613
0.543955
0.519303
0.516791
0.504556
0.50375
0.510431
0.513517
0.531682
0.534131
0.5
0.521159
0.511477
0.528752
0.514168
0.5
0.533783
0.511644
0.510617
0.516478
0.517315
0.525879
0.507967
0.507499
0.5
0.514445
0.515629
0.502757
0.511582
0.5
0.5
0.5
0.5
0.5
0.5
0.5
0.5
0.5
0.5
0.58503
0.509446
0.5
0.520787
0.539935
0.535388
0.50585
0.5
0.561522
0.515967
0.528057
0.527334
0.550511
0.541016
0.513159
0.522527
0.501665
0.528014
0.5
0.515696
0.511905
0.5
0.523107
0.502557
0.507618
0.525429
0.513836
0.51174
0.516029
0.5
0.500714
0.521497
0.511284
0.516192
0.52963
0.518549
0.504996
0.540337
0.506737
0.526358
0.50638
0.525689
0.526779
0.513648
0.533878
0.524292
0.518235
0.5
0.5
0.5
0.516992
0.5
0.5
0.5
0.5
0.5
0.5
0.5
0.5
0.5
0.588537
0.530065
0.523732
0.56126
0.51819
0.527522
0.537597
0.556652
0.521809
0.523739
0.524169
0.525798
0.511589
0.535476
0.535221
0.526995
0.5
0.533603
0.5
0.522561
0.517588
0.51546
0.521719
0.51973
0.5
0.507846
0.502719
0.506585
0.506985
0.50748
0.5
0.5
0.550405
0.502389
0.519154
0.512934
0.528234
0.53587
0.509096
0.5
0.514167
0.520712
0.521131
0.516769
0.51242
0.501259
0.514455
0.5
0.5
0.5
0.51037
0.5
0.5
0.5
0.5
0.5
0.5
0.5
0.5
0.5
0.529618
0.509527
0.532606
0.512709
0.527855
0.52591
0.533993
0.533175
0.52432
0.52907
0.517483
0.556193
0.528558
0.512108
0.5
0.553827
0.528283
0.520075
0.503249
0.506306
0.505645
0.519394
0.510773
0.511575
0.522673
0.5
0.506279
0.541935
0.513512
0.516547
0.523999
0.512292
0.508013
0.518599
0.524238
0.500108
0.531156
0.509047
0.506713
0.5
0.504016
0.504955
0.50989
0.514979
0.521299
0.513877
0.509118
0.5
0.513131
0.5
0.511067
0.5
0.5
0.5
0.5
0.5
0.5
0.5
0.5
0.5
0.560951
0.535996
0.516807
0.528223
0.542807
0.533485
0.51014
0.502057
0.510446
0.505839
0.526823
0.511146
0.506537
0.538871
0.519358
0.526818
0.514402
0.537906
0.5234
0.537926
0.508974
0.5
0.510489
0.539291
0.544964
0.511176
0.505402
0.518414
0.524857
0.516733
0.512504
0.522761
0.535284
0.52944
0.527558
0.5
0.510363
0.544177
0.505824
0.519343
0.511648
0.510108
0.532732
0.514737
0.527267
0.526454
0.5
0.513708
0.5
0.5
0.5
0.5
0.5
0.5
0.5
0.5
0.5
0.5
0.5
0.5
0.552039
0.538078
0.514242
0.530472
0.532374
0.528548
0.519555
0.518786
0.565864
0.510626
0.518869
0.544404
0.539056
0.555566
0.524477
0.51507
0.512259
0.513423
0.511383
0.506732
0.517009
0.508314
0.51474
0.520278
0.51018
0.506175
0.509489
0.511375
0.523239
0.507396
0.507146
0.513188
0.535959
0.531678
0.505076
0.5
0.523372
0.528818
0.514348
0.530155
0.5
0.5
0.532019
0.5
0.516871
0.5
0.513997
0.5
0.513047
0.5
0.5
0.5
0.5
0.5
0.5
0.5
0.5
0.5
0.5
0.5
0.526123
0.525675
0.508652
0.511473
0.505218
0.510172
0.514028
0.543546
0.523843
0.514216
0.523018
0.526541
0.522889
0.512546
0.530232
0.524147
0.513472
0.523613
0.505354
0.509414
0.513213
0.531077
0.512763
0.502867
0.54486
0.5
0.533538
0.509213
0.512854
0.509149
0.513602
0.539628
0.518655
0.511533
0.523786
0.5
0.516467
0.522457
0.506516
0.545963
0.519743
0.512463
0.530017
0.5
0.51009
0.512011
0.512314
0.50032
0.511166
0.516194
0.5
0.5
0.5
0.5
0.5
0.5
0.5
0.5
0.5
0.5
0.521346
0.530375
0.534934
0.552195
0.518004
0.523576
0.516883
0.514863
0.521199
0.533
0.552615
0.539945
0.53332
0.510691
0.503909
0.549698
0.52798
0.529151
0.531176
0.507
0.50381
0.508341
0.5
0.5
0.50828
0.516787
0.511914
0.512262
0.519415
0.528578
0.524646
0.528558
0.534029
0.546105
0.502417
0.506594
0.51816
0.506064
0.514905
0.51624
0.5
0.508685
0.512404
0.507797
0.510171
0.5
0.516265
0.519812
0.503462
0.5
0.5
0.5
0.5
0.5
0.5
0.5
0.5
0.5
0.5
0.5
0.562962
0.513756
0.548776
0.527448
0.516992
0.528139
0.527516
0.529146
0.526154
0.533346
0.523263
0.540073
0.515494
0.565221
0.524337
0.520214
0.504726
0.535415
0.507861
0.525237
0.514958
0.503988
0.510826
0.512958
0.521353
0.514461
0.515205
0.512852
0.507052
0.524685
0.532928
0.526198
0.543751
0.524431
0.500868
0.50234
0.521066
0.508747
0.507365
0.532267
0.500542
0.533714
0.522938
0.5
0.509037
0.519995
0.510055
0.517633
0.514784
0.5
0.5
0.5
0.5
0.5
0.5
0.5
0.5
0.5
0.5
0.5
0.516287
0.5
0.541027
0.56262
0.524698
0.516466
0.563633
0.515501
0.51991
0.538755
0.51463
0.523423
0.517616
0.533703
0.520256
0.5
0.511745
0.506077
0.506174
0.515323
0.510124
0.506558
0.514994
0.507486
0.518087
0.52622
0.52515
0.514324
0.520769
0.504899
0.524877
0.525381
0.514318
0.521796
0.504886
0.504634
0.508458
0.51959
0.516697
0.5
0.523087
0.53331
0.5
0.5
0.520387
0.520391
0.510347
0.513181
0.5
0.5
0.5
0.5
0.515132
0.5
0.5
0.5
0.5
0.5
0.5
0.5
0.527245
0.526722
0.531206
0.540211
0.533144
0.52104
0.510224
0.508396
0.514918
0.539086
0.515435
0.523568
0.519579
0.518225
0.505639
0.532562
0.525427
0.511344
0.518671
0.510216
0.519824
0.525004
0.524424
0.528834
0.514232
0.518218
0.523907
0.517261
0.503349
0.50986
0.507811
0.516142
0.516908
0.50985
0.505138
0.507215
0.525715
0.5
0.521431
0.531292
0.512971
0.522985
0.512277
0.507532
0.540538
0.50017
0.522175
0.510506
0.5
0.5
0.52637
0.5
0.5
0.5
0.5
0.5
0.5
0.5
0.5
0.5
0.511441
0.521666
0.531788
0.515098
0.532407
0.513317
0.54355
0.548279
0.518938
0.543569
0.526057
0.541878
0.525674
0.535922
0.507165
0.524647
0.511789
0.512101
0.514268
0.507217
0.524565
0.534919
0.536118
0.508795
0.51405
0.503673
0.516223
0.510581
0.506156
0.511287
0.501381
0.531327
0.518338
0.528557
0.548263
0.532682
0.511074
0.521772
0.512768
0.5
0.512768
0.516396
0.511432
0.510592
0.5
0.5
0.5
0.5
0.5
0.531014
0.505017
0.512535
0.5
0.5
0.5
0.5
0.5
0.5
0.5
0.5
0.509887
0.546996
0.520354
0.523984
0.505315
0.53378
0.527403
0.551263
0.517078
0.532646
0.54332
0.517683
0.523554
0.525135
0.523212
0.521005
0.511686
0.51561
0.514627
0.5
0.509791
0.524764
0.5
0.505641
0.505291
0.511789
0.532132
0.512466
0.510798
0.506254
0.515823
0.503469
0.525108
0.5
0.53997
0.515255
0.507009
0.52277
0.522155
0.529191
0.52063
0.514409
0.506264
0.530008
0.50854
0.510289
0.5
0.5
0.515279
0.514142
0.5
0.5
0.5
0.5
0.5
0.5
0.5
0.5
0.5
0.5
0.5
0.507991
0.520802
0.532423
0.535152
0.520945
0.557188
0.520503
0.542431
0.521817
0.521464
0.522086
0.550689
0.540546
0.527597
0.515863
0.543491
0.533455
0.515195
0.515229
0.511983
0.510115
0.51059
0.515287
0.507562
0.519744
0.51976
0.5
0.534603
0.513677
0.518492
0.5
0.519844
0.505605
0.525586
0.521061
0.5
0.5
0.543569
0.5
0.53155
0.531134
0.5
0.518959
0.502207
0.508229
0.5
0.5
0.5
0.5
0.5
0.5
0.5
0.5
0.5
0.5
0.5
0.5
0.5
0.5
0.525672
0.517047
0.525311
0.547707
0.550057
0.533042
0.556096
0.538229
0.531056
0.533442
0.518153
0.53167
0.517116
0.538595
0.510629
0.530207
0.510343
0.511023
0.518733
0.511322
0.527979
0.530472
0.514589
0.502459
0.516936
0.518167
0.521745
0.521203
0.507306
0.509958
0.510543
0.510909
0.526937
0.515152
0.528285
0.511107
0.514743
0.516748
0.517755
0.5
0.53627
0.521826
0.506171
0.528303
0.50502
0.51878
0.5
0.511973
0.5
0.5
0.5
0.5
0.5
0.5
0.5
0.5
0.5
0.5
0.5
0.5
0.590576
0.515901
0.522754
0.516186
0.530143
0.520901
0.531742
0.524355
0.518408
0.523064
0.545029
0.505205
0.526702
0.508958
0.527823
0.501785
0.518225
0.524749
0.503982
0.511808
0.515513
0.511637
0.515661
0.506988
0.51388
0.514643
0.518913
0.513176
0.50113
0.507265
0.542098
0.507453
0.521744
0.503258
0.540412
0.516799
0.505059
0.5
0.512665
0.517787
0.519409
0.500409
0.506219
0.5
0.504758
0.502564
0.513636
0.512969
0.5
0.5
0.5
0.5
0.5
0.5
0.5
0.5
0.5
0.5
0.5
0.5
0.5
0.539208
0.542027
0.511528
0.514796
0.520363
0.525717
0.547623
0.539056
0.529529
0.553574
0.53512
0.538416
0.507251
0.532217
0.524257
0.515738
0.524736
0.5
0.541998
0.505278
0.515817
0.524423
0.519629
0.50707
0.503797
0.503403
0.521194
0.509013
0.509824
0.51699
0.515033
0.507933
0.504738
0.507503
0.520009
0.522609
0.528753
0.518889
0.523691
0.567389
0.507252
0.5
0.520734
0.52926
0.526537
0.5
0.503897
0.50691
0.5
0.5
0.5
0.5
0.5
0.5
0.5
0.5
0.5
0.5
0.5
0.506114
0.511964
0.518294
0.516022
0.535584
0.514466
0.527209
0.534473
0.518942
0.539059
0.528155
0.520463
0.503406
0.517352
0.527534
0.518118
0.523424
0.531934
0.520291
0.529154
0.517349
0.512576
0.515589
0.507008
0.517418
0.517107
0.508868
0.517648
0.508435
0.50964
0.52736
0.521937
0.501485
0.513549
0.524231
0.522636
0.506787
0.520674
0.514556
0.548607
0.560213
0.5
0.513048
0.500136
0.505721
0.510488
0.5
0.5
0.5
0.513173
0.5
0.5
0.5
0.5
0.5
0.5
0.5
0.5
0.5
0.5
0.5
0.541005
0.520924
0.524867
0.532452
0.508715
0.523142
0.542586
0.514137
0.511255
0.516086
0.510439
0.536317
0.51035
0.537883
0.516005
0.510782
0.525062
0.510417
0.514125
0.512107
0.524852
0.530079
0.526715
0.513778
0.540854
0.52153
0.512873
0.522844
0.524287
0.527628
0.513332
0.517477
0.51351
0.510869
0.520003
0.509848
0.510743
0.510048
0.510903
0.518199
0.5
0.519023
0.507258
0.501476
0.527066
0.5
0.5
0.5
0.5
0.5
0.5
0.5
0.5
0.5
0.5
0.5
0.5
0.5
0.5
0.5
0.526172
0.525793
0.532346
0.507724
0.525291
0.540702
0.538354
0.525759
0.524166
0.528174
0.541192
0.504568
0.515284
0.51347
0.519762
0.515742
0.520705
0.512465
0.503984
0.51356
0.508854
0.521432
0.51906
0.510471
0.51127
0.515698
0.507996
0.517526
0.514184
0.524451
0.506976
0.515688
0.503555
0.52578
0.51591
0.506261
0.517443
0.518515
0.519357
0.519019
0.5
0.5
0.500198
0.514183
0.517407
0.5
0.5
0.5
0.5
0.5
0.5
0.5
0.5
0.5
0.5
0.5
0.5
0.5
0.5
0.5
0.51743
0.51761
0.514643
0.520056
0.53544
0.528461
0.526629
0.531429
0.524024
0.507075
0.527673
0.532514
0.520637
0.520561
0.518798
0.510548
0.516418
0.511406
0.523271
0.510454
0.516571
0.514207
0.506014
0.531704
0.508107
0.515579
0.502907
0.51793
0.520008
0.520904
0.520064
0.504607
0.540552
0.509514
0.51205
0.512127
0.510181
0.505989
0.513622
0.520412
0.51924
0.518994
0.514082
0.511266
0.5
0.5
0.5
0.5
0.5
0.5
0.5
0.5
0.5
0.5
0.5
0.5
0.5
0.5
0.5
0.5
0.5314
0.532657
0.524682
0.512355
0.51436
0.521367
0.527519
0.546729
0.534711
0.519356
0.520201
0.51495
0.52715
0.531994
0.525938
0.525979
0.536985
0.504913
0.516109
0.505125
0.506556
0.513113
0.506576
0.530295
0.518137
0.513967
0.506056
0.512748
0.505541
0.513223
0.530061
0.507032
0.505335
0.5163
0.508611
0.503724
0.520037
0.506146
0.517561
0.538288
0.520667
0.506716
0.528758
0.511382
0.5
0.5
0.5
0.510697
0.5
0.5
0.5
0.5
0.5
0.5
0.5
0.5
0.5
0.5
0.5
0.5
0.513392
0.51181
0.521011
0.527922
0.518499
0.545739
0.526592
0.51905
0.523968
0.526528
0.552767
0.517409
0.506888
0.520266
0.509723
0.515006
0.519216
0.512892
0.511365
0.527397
0.517236
0.504467
0.508669
0.514577
0.513625
0.521664
0.506145
0.523661
0.505056
0.5221
0.515853
0.540917
0.509245
0.515141
0.515669
0.535118
0.513048
0.50579
0.5
0.521955
0.513389
0.506202
0.5
0.5
0.506696
0.5
0.5
0.5
0.5
0.5
0.5
0.5
0.5
0.5
0.5
0.5
0.5
0.5
0.5
0.5
0.555727
0.520228
0.521769
0.529766
0.528779
0.541301
0.52639
0.534816
0.545207
0.519157
0.522134
0.529361
0.513093
0.523274
0.528629
0.510119
0.510403
0.541042
0.510535
0.520452
0.522816
0.505202
0.514278
0.50967
0.508125
0.508295
0.510801
0.518146
0.520578
0.512603
0.522476
0.516954
0.503774
0.532627
0.505595
0.509722
0.515647
0.529955
0.515482
0.506135
0.53309
0.5
0.50994
0.519374
0.537513
0.507848
0.511658
0.5
0.5
0.5
0.5
0.5
0.5
0.5
0.5
0.5
0.5
0.5
0.5
0.5
0.521417
0.512692
0.521548
0.553777
0.525772
0.53271
0.511722
0.539458
0.523887
0.52158
0.508961
0.523962
0.535479
0.525145
0.506063
0.505489
0.522223
0.514303
0.516051
0.50957
0.524074
0.512402
0.514063
0.531594
0.509819
0.512652
0.515116
0.514873
0.508499
0.538275
0.529257
0.515426
0.51703
0.52098
0.510522
0.509947
0.518177
0.514641
0.504394
0.533245
0.50464
0.518236
0.515132
0.521546
0.508733
0.521435
0.513908
0.5
0.5
0.5
0.5
0.5
0.5
0.5
0.5
0.5
0.5
0.5
0.5
0.5
0.504235
0.527775
0.515498
0.524965
0.534786
0.507388
0.553496
0.517699
0.550799
0.539897
0.531247
0.528239
0.523108
0.522351
0.542145
0.525415
0.522354
0.512383
0.53109
0.510506
0.520811
0.515723
0.529975
0.5
0.510028
0.509803
0.518005
0.517562
0.5
0.531038
0.500345
0.509874
0.517582
0.526638
0.523077
0.516088
0.529352
0.514051
0.518058
0.512129
0.521134
0.515298
0.525407
0.507004
0.51496
0.5
0.5
0.508493
0.5
0.5
0.5
0.5
0.5
0.5
0.5
0.5
0.5
0.5
0.5
0.5
0.515096
0.510494
0.511888
0.55287
0.52006
0.514055
0.507997
0.529352
0.519274
0.534871
0.530354
0.52623
0.534847
0.529725
0.519488
0.505763
0.519908
0.516678
0.517128
0.513432
0.535567
0.534399
0.507
0.506348
0.522575
0.508207
0.507054
0.519338
0.520927
0.507223
0.51829
0.517751
0.504368
0.520074
0.507794
0.512925
0.521824
0.519593
0.51456
0.509606
0.527284
0.507172
0.511148
0.524565
0.500581
0.506971
0.500178
0.507841
0.5
0.5
0.5
0.5
0.5
0.5
0.5
0.5
0.5
0.5
0.5
0.5
0.552044
0.520692
0.541102
0.510327
0.54049
0.52062
0.523157
0.546417
0.510262
0.532851
0.528998
0.530437
0.513697
0.52325
0.5
0.519623
0.542393
0.518515
0.510116
0.548905
0.524818
0.522827
0.52553
0.508561
0.522755
0.51088
0.515622
0.51269
0.526599
0.523184
0.506099
0.517562
0.518371
0.520154
0.516446
0.509328
0.524229
0.514613
0.518123
0.514121
0.538627
0.5
0.5
0.510873
0.514078
0.507044
0.510809
0.507582
0.5
0.5
0.5
0.5
0.5
0.5
0.5
0.5
0.5
0.5
0.5
0.5
0.52438
0.533215
0.520561
0.530651
0.511604
0.528881
0.519389
0.544194
0.507993
0.545071
0.523737
0.520114
0.503599
0.526283
0.517776
0.516397
0.533053
0.510403
0.514948
0.521464
0.521003
0.519205
0.54782
0.518303
0.522362
0.520487
0.517439
0.503738
0.507781
0.512726
0.50518
0.522741
0.515521
0.509133
0.513485
0.514993
0.527438
0.51143
0.517995
0.5
0.515868
0.5
0.511353
0.514236
0.518521
0.514415
0.514237
0.5
0.5
0.5
0.5
0.5
0.5
0.5
0.5
0.5
0.5
0.50268
0.5
0.503816
0.502614
0.520432
0.537762
0.533097
0.524271
0.521212
0.516305
0.541632
0.518857
0.542953
0.52341
0.534454
0.540414
0.505827
0.515915
0.530537
0.52052
0.519614
0.510337
0.513513
0.53012
0.517043
0.522149
0.526779
0.504138
0.504548
0.521635
0.505698
0.510948
0.53435
0.524323
0.510288
0.523564
0.501938
0.519251
0.523562
0.521855
0.509279
0.511829
0.517571
0.51868
0.534717
0.515499
0.511841
0.51553
0.516712
0.5
0.5
0.510788
0.5
0.5
0.5
0.5
0.5
0.5
0.5
0.5
0.5
0.5
0.5
0.540041
0.529014
0.515893
0.530051
0.510811
0.510732
0.524578
0.517006
0.52915
0.533856
0.515681
0.515655
0.5083
0.513321
0.5163
0.513318
0.510151
0.519494
0.513483
0.523524
0.509206
0.517863
0.539228
0.502007
0.511334
0.506965
0.509064
0.511962
0.529073
0.531152
0.523775
0.504942
0.511904
0.519401
0.529565
0.535688
0.511708
0.5245
0.509808
0.508282
0.508007
0.526739
0.523644
0.51092
0.507562
0.515842
0.5
0.5
0.5
0.5
0.5
0.5
0.5
0.5
0.5
0.5
0.5
0.5
0.5
0.5
0.535067
0.510762
0.517737
0.526319
0.538163
0.54468
0.52748
0.517177
0.519644
0.519129
0.532189
0.527083
0.516787
0.541457
0.536219
0.514265
0.521587
0.514673
0.521148
0.525542
0.532909
0.506936
0.531849
0.511829
0.506969
0.5156
0.503244
0.525044
0.505614
0.518943
0.508962
0.510975
0.502939
0.530222
0.531816
0.511485
0.511977
0.518044
0.51142
0.504326
0.521292
0.517682
0.505519
0.507038
0.512469
0.505781
0.507235
0.510354
0.5
0.5
0.5
0.5
0.5
0.5
0.5
0.5
0.5
0.5
0.5
0.5
0.534013
0.521291
0.519177
0.51354
0.538941
0.545608
0.516589
0.518459
0.538903
0.521781
0.511927
0.515954
0.524088
0.510422
0.506472
0.519162
0.50697
0.528222
0.511367
0.506741
0.511229
0.506047
0.503741
0.509671
0.506969
0.5239
0.519037
0.519258
0.511067
0.513567
0.5
0.509879
0.511651
0.510354
0.530816
0.510516
0.535705
0.514751
0.533877
0.5
0.511537
0.511041
0.505726
0.506511
0.507553
0.515141
0.505334
0.50835
0.5
0.5
0.5
0.5
0.5
0.5
0.5
0.5
0.5
0.5
0.5
0.5
0.514822
0.53134
0.516636
0.526683
0.534147
0.516719
0.532425
0.536698
0.523505
0.521094
0.533187
0.515358
0.522104
0.540068
0.521264
0.518452
0.529718
0.501838
0.512221
0.507585
0.500576
0.506035
0.509522
0.5
0.505514
0.508115
0.51455
0.516338
0.527891
0.522641
0.507947
0.528163
0.50331
0.506067
0.511183
0.508233
0.509447
0.508994
0.527946
0.522644
0.51879
0.509918
0.522017
0.5
0.51193
0.5
0.510994
0.5
0.5
0.5
0.5
0.5
0.5
0.5
0.5
0.5
0.5
0.5
0.5
0.5
0.536556
0.533185
0.519812
0.541771
0.523483
0.539286
0.522984
0.528845
0.526695
0.505523
0.517155
0.517649
0.52956
0.522829
0.522078
0.506592
0.524791
0.528171
0.52161
0.516291
0.513763
0.518413
0.520017
0.507097
0.520963
0.506399
0.519441
0.512278
0.503753
0.523519
0.509099
0.50817
0.528321
0.528317
0.515923
0.50789
0.520326
0.506365
0.527403
0.522144
0.500922
0.513091
0.506834
0.52191
0.515326
0.514105
0.5
0.5
0.5
0.5
0.5
0.5
0.5
0.5
0.5
0.5
0.5
0.5
0.5
0.5
0.519009
0.520805
0.50728
0.540976
0.520715
0.516364
0.52632
0.529603
0.530718
0.53496
0.528365
0.531116
0.528522
0.511199
0.523546
0.510882
0.512874
0.514221
0.545095
0.508151
0.505693
0.519267
0.513877
0.512913
0.51751
0.5
0.5
0.511422
0.509027
0.503821
0.520889
0.508929
0.52204
0.506741
0.511471
0.526186
0.521405
0.511702
0.53765
0.511685
0.505739
0.510928
0.50576
0.520782
0.507136
0.506251
0.5
0.510229
0.5
0.508363
0.5
0.5
0.5
0.5
0.5
0.5
0.5
0.5
0.5
0.5
0.551797
0.51258
0.532557
0.516736
0.520176
0.517605
0.534391
0.546744
0.539813
0.523751
0.51485
0.513155
0.543404
0.52193
0.510098
0.507607
0.507934
0.516973
0.526571
0.50415
0.541171
0.516175
0.511668
0.532202
0.505608
0.522588
0.511683
0.522108
0.527854
0.507398
0.512682
0.508642
0.514523
0.509072
0.509134
0.514661
0.502121
0.508286
0.552756
0.5
0.505571
0.50511
0.516798
0.508903
0.507276
0.5
0.506737
0.5
0.507817
0.5
0.5
0.5
0.5
0.5
0.5
0.5
0.5
0.5
0.5
0.5
0.533738
0.539088
0.539687
0.53258
0.510633
0.520736
0.530918
0.533499
0.517049
0.521678
0.513988
0.53949
0.527501
0.5
0.530784
0.512665
0.515165
0.519057
0.512135
0.505942
0.512792
0.504722
0.51424
0.516084
0.518157
0.511901
0.517523
0.526939
0.525667
0.504399
0.501082
0.517377
0.511731
0.5
0.519919
0.505587
0.522852
0.50798
0.5317
0.51724
0.5
0.505143
0.50495
0.512381
0.508754
0.516763
0.506406
0.5
0.5
0.5
0.5
0.5
0.5
0.5
0.5
0.5
0.5
0.5
0.5
0.5
0.520213
0.542362
0.53786
0.551572
0.522867
0.518879
0.547059
0.514245
0.548376
0.533248
0.530131
0.52716
0.528707
0.537183
0.535262
0.529275
0.519853
0.517235
0.524602
0.5
0.528088
0.510506
0.503678
0.5152
0.503736
0.510677
0.520454
0.525282
0.511963
0.50851
0.519269
0.513291
0.515734
0.508549
0.528398
0.510092
0.508358
0.504232
0.504476
0.512273
0.505219
0.505879
0.515068
0.509281
0.514992
0.5
0.502659
0.5
0.5
0.5
0.5
0.5
0.5
0.5
0.5
0.5
0.5
0.5
0.5
0.5
0.518275
0.518783
0.519231
0.525459
0.529288
0.523057
0.530145
0.528816
0.515023
0.525761
0.530201
0.527274
0.526566
0.514355
0.517993
0.519123
0.513064
0.502782
0.508215
0.511137
0.504546
0.522579
0.513305
0.515408
0.518346
0.514946
0.515896
0.528227
0.503369
0.508637
0.518992
0.510428
0.524724
0.50282
0.512609
0.5
0.5
0.546823
0.506766
0.509162
0.527305
0.527256
0.5
0.51844
0.507201
0.5
0.509346
0.5
0.5
0.5
0.5
0.5
0.5
0.5
0.5
0.5
0.5
0.5
0.5
0.5
0.509643
0.515498
0.522726
0.520765
0.506035
0.540841
0.523508
0.516598
0.529209
0.533535
0.512643
0.524834
0.523676
0.507447
0.512612
0.527036
0.529811
0.533819
0.517405
0.513869
0.519426
0.504015
0.507317
0.509192
0.503373
0.5
0.5
0.517902
0.507435
0.522107
0.507614
0.531651
0.508694
0.505318
0.520751
0.518354
0.520734
0.516209
0.525605
0.514448
0.52365
0.517666
0.511486
0.5
0.518812
0.502725
0.502318
0.508332
0.51005
0.5
0.5
0.5
0.5
0.5
0.5
0.5
0.5
0.5
0.5
0.5
0.52083
0.512487
0.522411
0.546005
0.527471
0.517252
0.515498
0.543664
0.524627
0.510942
0.528094
0.50711
0.527897
0.52535
0.519256
0.513949
0.52309
0.52084
0.516885
0.521911
0.504882
0.50972
0.505384
0.511941
0.517425
0.512617
0.5
0.521744
0.512531
0.517224
0.51289
0.512554
0.519047
0.522763
0.53779
0.524631
0.521583
0.5
0.527055
0.504823
0.512506
0.5
0.514024
0.5
0.505884
0.513597
0.510104
0.507501
0.509764
0.5
0.5
0.5
0.5
0.5
0.5
0.5
0.5
0.5
0.5
0.5
0.51836
0.516722
0.510901
0.520797
0.543006
0.510342
0.537597
0.528352
0.528438
0.529575
0.536549
0.518158
0.53693
0.535833
0.519911
0.515095
0.531741
0.504737
0.513935
0.519132
0.519103
0.512764
0.5
0.513869
0.517614
0.509594
0.515739
0.5147
0.5
0.516029
0.514983
0.510696
0.510842
0.512603
0.508236
0.511041
0.527116
0.546487
0.526084
0.513399
0.514431
0.505214
0.5
0.514269
0.506107
0.5
0.5
0.5
0.5
0.5
0.5
0.5
0.5
0.5
0.5
0.5
0.5
0.5
0.5
0.5
0.507232
0.521268
0.523277
0.53207
0.525001
0.518624
0.527178
0.547439
0.528367
0.521074
0.524356
0.527288
0.502732
0.530679
0.526875
0.518636
0.506615
0.501761
0.528833
0.508818
0.520618
0.509378
0.507923
0.500551
0.528485
0.502714
0.508437
0.509868
0.516287
0.501863
0.531689
0.513089
0.509427
0.508912
0.507554
0.515325
0.509708
0.512131
0.505907
0.522371
0.513335
0.505028
0.508899
0.501088
0.522649
0.519877
0.507753
0.5
0.507792