/*--------------------------------*- C++ -*----------------------------------*\
| =========                 |                                                 |
| \\      /  F ield         | OpenFOAM: The Open Source CFD Toolbox           |
|  \\    /   O peration     | Version:  v1906                                 |
|   \\  /    A nd           | Web:      www.OpenFOAM.com                      |
|    \\/     M anipulation  |                                                 |
\*---------------------------------------------------------------------------*/
FoamFile
{
    version     2.0;
    format      ascii;
    class       volScalarField;
    location    "2.83";
    object      alphat;
}
// * * * * * * * * * * * * * * * * * * * * * * * * * * * * * * * * * * * * * //

dimensions      [1 -1 -1 0 0 0 0];


internalField   nonuniform List<scalar> 
26400
(
0.0204186
0.0204041
0.0203752
0.0203318
0.020274
0.0202018
0.0201153
0.0200144
0.0198994
0.0197702
0.0196268
0.0194695
0.0192981
0.0191128
0.0189138
0.0187011
0.0184746
0.0182346
0.0179811
0.017714
0.0174334
0.0171396
0.0168324
0.016512
0.0161783
0.0158314
0.0154713
0.0150982
0.0147119
0.0143126
0.0139003
0.013475
0.0130365
0.0125848
0.01212
0.0116423
0.0111517
0.010648
0.0101317
0.00960292
0.00906207
0.00850961
0.00794623
0.00737304
0.00679154
0.00620382
0.00561276
0.00502227
0.00443755
0.00386536
0.00331403
0.00279411
0.00231617
0.00189087
0.00152474
0.00121606
0.000949629
0.000702553
0.000446532
0.000154888
0.020579
0.0205646
0.0205357
0.0204924
0.0204347
0.0203627
0.0202763
0.0201757
0.020061
0.0199321
0.0197892
0.0196324
0.0194616
0.019277
0.0190787
0.0188667
0.0186412
0.0184021
0.0181496
0.0178837
0.0176044
0.0173118
0.017006
0.016687
0.0163547
0.0160094
0.0156509
0.0152793
0.0148946
0.0144968
0.0140861
0.0136623
0.0132252
0.0127749
0.0123114
0.0118346
0.0113443
0.010841
0.0103245
0.00979512
0.00925295
0.00869856
0.00813258
0.00755586
0.00696957
0.00637549
0.00577605
0.00517465
0.00457602
0.0039867
0.00341555
0.00287228
0.00236948
0.00191956
0.00153254
0.00121153
0.00094227
0.00069901
0.000448179
0.000154966
0.0206948
0.0206804
0.0206516
0.0206084
0.0205507
0.0204787
0.0203924
0.0202919
0.0201772
0.0200484
0.0199055
0.0197486
0.0195779
0.0193934
0.0191951
0.018983
0.0187573
0.0185181
0.0182653
0.0179991
0.0177195
0.0174266
0.0171203
0.0168008
0.016468
0.0161219
0.0157626
0.0153901
0.0150044
0.0146054
0.0141934
0.0137682
0.0133297
0.0128779
0.0124128
0.0119345
0.011443
0.0109382
0.0104201
0.0098891
0.00934536
0.0087893
0.00822139
0.00764238
0.00705336
0.00645589
0.00585223
0.00524555
0.00464032
0.00404272
0.00346121
0.00290627
0.00239122
0.00193024
0.00153469
0.00120791
0.000936411
0.000696494
0.000448289
0.000154873
0.02082
0.0208056
0.0207768
0.0207337
0.0206762
0.0206044
0.0205184
0.0204181
0.0203036
0.0201751
0.0200326
0.0198761
0.0197059
0.0195218
0.019324
0.0191127
0.0188877
0.0186492
0.0183973
0.018132
0.0178533
0.0175614
0.0172561
0.0169376
0.0166058
0.0162608
0.0159026
0.0155312
0.0151465
0.0147486
0.0143376
0.0139134
0.0134758
0.0130247
0.0125603
0.0120823
0.011591
0.0110863
0.0105686
0.0100377
0.00949369
0.00893692
0.0083679
0.00778724
0.00719585
0.00659514
0.005987
0.00537411
0.0047604
0.00415145
0.00355509
0.0029816
0.00244477
0.00196075
0.00154472
0.00120451
0.000929085
0.00068839
0.000448288
0.000154708
0.0209436
0.0209292
0.0209005
0.0208574
0.0208001
0.0207284
0.0206426
0.0205425
0.0204283
0.0203001
0.020158
0.0200019
0.0198321
0.0196485
0.0194513
0.0192404
0.0190159
0.018778
0.0185267
0.0182619
0.0179838
0.0176924
0.0173877
0.0170696
0.0167382
0.0163936
0.0160356
0.0156643
0.0152796
0.0148816
0.0144704
0.0140458
0.0136076
0.0131558
0.0126904
0.0122115
0.0117188
0.0112126
0.0106929
0.0101594
0.00961252
0.00905261
0.00848022
0.00789587
0.00730037
0.00669507
0.00608172
0.00546289
0.00484223
0.00422503
0.00361834
0.00303267
0.00248169
0.00198216
0.00155097
0.00119857
0.000917691
0.000682059
0.000447286
0.000154482
0.0210667
0.0210523
0.0210237
0.0209807
0.0209236
0.0208522
0.0207666
0.0206669
0.0205531
0.0204254
0.0202838
0.0201283
0.019959
0.0197761
0.0195796
0.0193695
0.0191459
0.0189089
0.0186585
0.0183948
0.0181177
0.0178272
0.0175234
0.0172063
0.0168759
0.0165321
0.0161751
0.0158046
0.0154208
0.0150236
0.014613
0.0141889
0.0137512
0.0132997
0.0128345
0.0123555
0.0118625
0.0113558
0.0108354
0.0103016
0.00975447
0.00919405
0.00862059
0.00803473
0.00743733
0.00682943
0.00621257
0.00558898
0.00496175
0.00433537
0.00371607
0.00311436
0.00254324
0.00202075
0.00156737
0.00119629
0.000906821
0.000672901
0.000443315
0.000154066
0.0211891
0.0211748
0.0211463
0.0211035
0.0210466
0.0209755
0.0208903
0.0207912
0.020678
0.0205509
0.02041
0.0202553
0.0200869
0.0199048
0.0197092
0.0195
0.0192774
0.0190414
0.018792
0.0185293
0.0182533
0.0179639
0.0176611
0.0173451
0.0170157
0.0166729
0.0163167
0.0159469
0.0155637
0.015167
0.0147568
0.0143329
0.0138952
0.0134435
0.0129779
0.0124982
0.0120044
0.0114964
0.0109744
0.0104384
0.00988807
0.00932401
0.00874672
0.00815668
0.00755471
0.00694184
0.00631964
0.00569026
0.0050567
0.00442278
0.00379469
0.00318047
0.00259418
0.00205333
0.00157965
0.0011903
0.000890454
0.000657684
0.000438625
0.000153569
0.0213104
0.0212963
0.0212679
0.0212252
0.0211686
0.0210979
0.0210133
0.0209147
0.0208022
0.0206759
0.0205359
0.0203822
0.0202148
0.020034
0.0198396
0.0196316
0.0194103
0.0191756
0.0189275
0.0186662
0.0183915
0.0181035
0.0178022
0.0174876
0.0171595
0.016818
0.016463
0.0160944
0.0157122
0.0153163
0.0149069
0.0144838
0.0140466
0.0135952
0.0131297
0.0126498
0.0121556
0.011647
0.011124
0.0105865
0.0100349
0.0094694
0.00889009
0.00829746
0.00769228
0.00707556
0.00644872
0.0058137
0.00517317
0.00453053
0.00389129
0.00326362
0.00266058
0.00209866
0.00160091
0.00118896
0.000874701
0.00064049
0.000432637
0.000152789
0.0214296
0.0214155
0.0213874
0.0213452
0.021289
0.0212189
0.0211349
0.0210371
0.0209256
0.0208004
0.0206616
0.0205092
0.0203432
0.0201639
0.019971
0.0197646
0.0195449
0.0193119
0.0190655
0.0188058
0.0185329
0.0182466
0.017947
0.017634
0.0173074
0.0169674
0.0166138
0.0162466
0.0158657
0.0154709
0.0150624
0.0146399
0.0142032
0.0137521
0.0132865
0.0128064
0.0123116
0.011802
0.0112775
0.0107381
0.0101838
0.00961479
0.00903139
0.00843406
0.00782358
0.00720094
0.00656759
0.00592545
0.00527719
0.00462609
0.00397744
0.0033387
0.0027205
0.00214013
0.0016202
0.00118509
0.000853543
0.000615041
0.000416742
0.000151625
0.0215477
0.0215338
0.0215058
0.0214639
0.0214082
0.0213387
0.0212554
0.0211584
0.0210478
0.0209237
0.0207863
0.0206355
0.0204713
0.0202938
0.0201029
0.0198986
0.019681
0.0194502
0.019206
0.0189486
0.0186779
0.0183938
0.0180963
0.0177854
0.0174609
0.0171228
0.0167711
0.0164057
0.0160263
0.015633
0.0152258
0.0148044
0.0143687
0.0139183
0.0134533
0.0129734
0.0124784
0.0119682
0.0114427
0.0109021
0.010346
0.00977468
0.00918829
0.00858726
0.00797224
0.00734409
0.00670422
0.00605446
0.00539704
0.00473552
0.00407489
0.00342228
0.00278735
0.00218786
0.00164473
0.00118443
0.000832655
0.000587859
0.000399854
0.000150386
0.0216604
0.0216468
0.0216195
0.0215786
0.0215242
0.021456
0.0213741
0.0212787
0.0211696
0.0210471
0.0209112
0.0207621
0.0205997
0.0204243
0.0202356
0.0200338
0.0198188
0.0195908
0.0193495
0.019095
0.0188271
0.0185457
0.018251
0.0179426
0.0176207
0.0172851
0.0169358
0.0165725
0.0161952
0.0158038
0.0153982
0.0149784
0.0145438
0.0140945
0.0136301
0.0131506
0.0126556
0.0121451
0.0116188
0.0110763
0.0105178
0.00994325
0.00935289
0.00874693
0.00812599
0.00749091
0.00684292
0.00618387
0.00551595
0.00484275
0.00416925
0.00350245
0.00285242
0.00223355
0.00166673
0.00118084
0.000805833
0.0005504
0.00037198
0.000148748
0.0217632
0.0217498
0.021723
0.021683
0.0216297
0.0215632
0.0214837
0.0213911
0.0212854
0.0211663
0.021034
0.0208883
0.0207293
0.0205569
0.0203712
0.0201724
0.0199604
0.0197353
0.019497
0.0192456
0.0189809
0.018703
0.0184115
0.0181065
0.0177878
0.0174555
0.0171092
0.0167489
0.0163744
0.0159855
0.0155823
0.0151645
0.0147317
0.0142838
0.0138206
0.0133417
0.0128473
0.0123368
0.0118102
0.0112669
0.0107069
0.0101302
0.00953669
0.00892662
0.00830038
0.00765866
0.0070025
0.00633359
0.00565397
0.0049671
0.00427789
0.00359328
0.00292324
0.00228053
0.00168955
0.00117803
0.000778997
0.00051079
0.000339726
0.000147552
0.0218571
0.0218442
0.0218186
0.0217801
0.0217286
0.0216642
0.0215868
0.0214964
0.0213931
0.0212769
0.0211478
0.0210057
0.0208508
0.0206831
0.0205025
0.0203091
0.0201027
0.019883
0.0196498
0.019403
0.0191427
0.0188689
0.0185816
0.0182806
0.0179658
0.0176371
0.0172943
0.0169373
0.0165658
0.0161798
0.0157793
0.0153641
0.0149336
0.0144878
0.0140262
0.0135488
0.0130555
0.0125457
0.0120187
0.0114745
0.0109129
0.0103338
0.00973704
0.00912267
0.00849086
0.00784209
0.00717722
0.00649766
0.00580529
0.00510344
0.00439703
0.00369314
0.00300194
0.0023379
0.00171599
0.00117425
0.000748584
0.00046421
0.000299695
0.000146858
0.0219316
0.0219191
0.0218942
0.0218568
0.021807
0.0217447
0.02167
0.0215829
0.0214835
0.0213717
0.0212474
0.0211107
0.0209615
0.0207994
0.0206244
0.0204365
0.0202357
0.020022
0.0197953
0.0195552
0.0193017
0.0190346
0.0187542
0.01846
0.0181519
0.0178295
0.0174924
0.0171405
0.0167736
0.0163917
0.0159949
0.015583
0.0151556
0.0147122
0.0142528
0.0137772
0.0132849
0.0127753
0.0122485
0.0117041
0.0111419
0.0105614
0.00996248
0.00934473
0.00870824
0.00805311
0.00737989
0.0066896
0.00598366
0.00526499
0.00453821
0.00381035
0.00309201
0.00239718
0.00174736
0.00117136
0.000717841
0.000418527
0.000255318
0.000147449
0.022013
0.0220006
0.0219759
0.0219388
0.0218894
0.0218277
0.0217536
0.0216673
0.0215688
0.0214581
0.0213354
0.0212008
0.0210546
0.0208972
0.0207281
0.020547
0.0203537
0.0201479
0.0199294
0.0196981
0.0194533
0.0191947
0.0189219
0.0186352
0.0183343
0.018019
0.0176891
0.0173443
0.0169842
0.0166088
0.0162182
0.0158121
0.0153898
0.0149511
0.0144955
0.0140231
0.0135337
0.0130267
0.0125018
0.0119586
0.0113967
0.0108157
0.0102152
0.00959484
0.00895436
0.00829367
0.0076129
0.00691259
0.00619364
0.00545834
0.00471067
0.00395716
0.00320819
0.00247821
0.00179113
0.0011788
0.000690871
0.000379902
0.000222517
0.000149809
0.0220612
0.0220497
0.0220269
0.0219926
0.021947
0.0218898
0.0218211
0.0217407
0.0216487
0.0215446
0.0214286
0.0213004
0.0211597
0.0210064
0.0208407
0.0206626
0.0204721
0.0202693
0.0200544
0.0198275
0.0195888
0.0193385
0.0190754
0.0187992
0.0185093
0.0182054
0.0178873
0.0175542
0.0172056
0.0168407
0.0164593
0.0160616
0.0156469
0.0152151
0.0147658
0.0142985
0.0138131
0.0133098
0.0127882
0.0122477
0.0116877
0.0111079
0.0105076
0.00988642
0.00924384
0.00857947
0.00789302
0.00718451
0.00645408
0.00570317
0.00493471
0.00415423
0.00337142
0.00260109
0.00186654
0.00120729
0.000678288
0.000352504
0.000202445
0.00015326
0.0220659
0.0220553
0.022034
0.022002
0.0219593
0.0219058
0.0218416
0.0217666
0.0216807
0.0215837
0.0214757
0.0213564
0.0212257
0.0210836
0.0209297
0.0207639
0.0205859
0.0203955
0.0201921
0.0199756
0.0197453
0.0195011
0.019243
0.018971
0.018685
0.0183852
0.0180714
0.0177439
0.017403
0.0170487
0.0166798
0.0162952
0.0158943
0.0154766
0.0150415
0.0145884
0.0141159
0.0136226
0.0131089
0.0125747
0.0120199
0.011444
0.0108465
0.0102269
0.00958452
0.00891891
0.00822942
0.0075156
0.00677693
0.00601371
0.00522744
0.00442158
0.00360325
0.00278424
0.00199131
0.00127458
0.000693482
0.000338276
0.000186688
0.000158422
0.0220203
0.0220104
0.0219907
0.0219611
0.0219215
0.021872
0.0218124
0.0217427
0.0216628
0.0215726
0.021472
0.0213608
0.0212391
0.0211065
0.020963
0.0208084
0.0206424
0.0204649
0.0202757
0.0200744
0.0198608
0.0196344
0.0193949
0.019142
0.018875
0.0185934
0.0182967
0.0179842
0.0176552
0.0173092
0.0169464
0.0165665
0.0161695
0.0157554
0.0153244
0.0148768
0.0144135
0.0139331
0.0134335
0.0129138
0.0123727
0.0118097
0.0112238
0.0106141
0.00997948
0.00931877
0.00863048
0.00791343
0.00716644
0.00638854
0.00558032
0.00474483
0.00388894
0.00302575
0.0021792
0.00138852
0.000734446
0.000334432
0.000174582
0.000168067
0.0219043
0.0218952
0.0218772
0.02185
0.0218137
0.0217682
0.0217135
0.0216495
0.0215761
0.0214931
0.0214005
0.0212981
0.0211857
0.0210632
0.0209304
0.0207872
0.0206333
0.0204685
0.0202925
0.0201052
0.0199062
0.0196953
0.0194722
0.0192364
0.0189877
0.0187257
0.01845
0.0181603
0.0178559
0.0175363
0.0172011
0.0168491
0.0164796
0.0160915
0.0156839
0.015256
0.0148065
0.0143347
0.0138406
0.0133238
0.012784
0.0122207
0.0116334
0.0110213
0.0103835
0.00971919
0.00902707
0.00830568
0.0075532
0.00676719
0.00594571
0.00508833
0.00419846
0.00328296
0.00236412
0.00149357
0.000774957
0.000333343
0.00016914
0.000178336
0.0216985
0.0216903
0.0216737
0.0216488
0.0216155
0.0215738
0.0215237
0.0214649
0.0213974
0.0213212
0.021236
0.0211417
0.0210382
0.0209252
0.0208027
0.0206704
0.0205281
0.0203755
0.0202125
0.0200387
0.019854
0.0196579
0.0194501
0.0192303
0.0189981
0.0187533
0.0184955
0.0182242
0.0179391
0.0176397
0.0173258
0.0169966
0.0166517
0.0162906
0.0159127
0.0155173
0.0151041
0.0146719
0.0142196
0.0137462
0.0132502
0.0127303
0.0121846
0.0116112
0.0110075
0.0103708
0.00969847
0.00898823
0.00823764
0.00744318
0.00660066
0.00570733
0.00476477
0.00377968
0.00274409
0.00172178
0.000885285
0.000355275
0.000172432
0.000180757
0.0213735
0.021366
0.0213508
0.0213279
0.0212973
0.021259
0.021213
0.0211591
0.0210971
0.0210271
0.0209487
0.020862
0.0207667
0.0206627
0.0205498
0.0204277
0.0202963
0.0201554
0.0200048
0.0198441
0.019673
0.0194913
0.0192985
0.0190944
0.0188784
0.0186503
0.0184097
0.0181561
0.017889
0.017608
0.0173127
0.0170024
0.0166768
0.0163354
0.015977
0.0156016
0.0152089
0.0147983
0.0143693
0.0139217
0.0134552
0.0129694
0.0124642
0.0119387
0.0113913
0.0108182
0.0102112
0.00958116
0.00893689
0.0082841
0.00762508
0.00695493
0.00625205
0.0054703
0.0046173
0.00369291
0.00256999
0.00194468
0.000657
0.000153446
0.0209453
0.0209371
0.0209208
0.0208962
0.0208632
0.0208218
0.020772
0.0207137
0.0206466
0.0205707
0.0204857
0.0203915
0.0202879
0.0201745
0.0200512
0.0199178
0.0197739
0.0196192
0.0194535
0.0192763
0.019087
0.0188854
0.0186707
0.0184425
0.0182001
0.0179428
0.0176701
0.0173814
0.0170756
0.0167517
0.0164092
0.0160469
0.0156636
0.0152584
0.01483
0.0143773
0.0138994
0.0133949
0.0128629
0.0123027
0.0117141
0.0110975
0.0104546
0.009789
0.00910705
0.00841974
0.0077449
0.0070745
0.00640221
0.00572467
0.00504091
0.00434993
0.00365572
0.00296659
0.00229211
0.00166027
0.00105518
0.000550402
0.000232682
0.0001513
0.0204011
0.0203928
0.0203761
0.020351
0.0203175
0.0202755
0.0202249
0.0201655
0.0200973
0.0200201
0.0199337
0.0198378
0.0197324
0.0196171
0.0194916
0.0193557
0.0192093
0.0190519
0.0188832
0.0187027
0.0185101
0.0183048
0.0180864
0.0178542
0.0176078
0.0173465
0.0170698
0.0167771
0.0164676
0.0161409
0.0157963
0.015433
0.0150501
0.0146469
0.0142229
0.0137776
0.0133101
0.0128201
0.0123072
0.0117713
0.0112124
0.0106306
0.0100262
0.00939964
0.00875157
0.00808293
0.00739546
0.00669333
0.00598802
0.00528971
0.00460517
0.00393999
0.00330235
0.00269786
0.00212753
0.00157178
0.0010306
0.000561498
0.000254102
0.000151689
0.0197359
0.0197271
0.0197095
0.019683
0.0196476
0.0196032
0.0195496
0.0194868
0.0194146
0.019333
0.0192416
0.0191401
0.0190284
0.0189063
0.0187735
0.0186298
0.0184748
0.0183082
0.0181295
0.0179383
0.0177341
0.0175164
0.0172846
0.0170383
0.0167767
0.0164993
0.0162055
0.0158946
0.0155659
0.0152189
0.0148529
0.0144671
0.0140607
0.0136333
0.0131842
0.0127131
0.0122196
0.0117039
0.0111662
0.0106074
0.0100288
0.00943253
0.00882151
0.00819971
0.00757223
0.00694537
0.00632646
0.00572315
0.00513547
0.00456583
0.00401966
0.00350209
0.003003
0.0025101
0.00201022
0.00150381
0.00100269
0.000562577
0.000259801
0.000150735
0.019015
0.0190059
0.0189878
0.0189606
0.0189243
0.0188787
0.0188238
0.0187596
0.0186858
0.0186024
0.018509
0.0184056
0.0182919
0.0181676
0.0180328
0.0178872
0.0177303
0.0175619
0.0173816
0.0171889
0.0169836
0.0167651
0.016533
0.0162868
0.016026
0.0157501
0.0154588
0.0151516
0.0148278
0.0144872
0.0141295
0.0137539
0.01336
0.0129477
0.0125166
0.0120669
0.0115984
0.0111115
0.0106068
0.010085
0.00954746
0.00899576
0.00843194
0.0078587
0.00727921
0.00669726
0.00611727
0.0055438
0.00498195
0.00443578
0.00390729
0.00339847
0.00291012
0.00243959
0.00198018
0.00151576
0.0010409
0.000594182
0.000273533
0.000151305
0.0182426
0.0182333
0.0182148
0.0181869
0.0181497
0.018103
0.0180469
0.0179812
0.0179057
0.0178204
0.017725
0.0176195
0.0175034
0.017377
0.0172401
0.0170923
0.0169333
0.0167629
0.0165807
0.0163864
0.0161794
0.0159596
0.0157263
0.0154792
0.0152179
0.014942
0.014651
0.0143445
0.0140219
0.0136831
0.0133278
0.0129552
0.012565
0.0121571
0.0117313
0.0112878
0.0108266
0.0103482
0.00985345
0.00934342
0.00881988
0.00828502
0.00774151
0.00719303
0.00664375
0.00609867
0.00556321
0.00504284
0.00454272
0.00406712
0.00361889
0.00319545
0.00278559
0.00237652
0.0019556
0.00151637
0.00106399
0.000630262
0.000293557
0.000152021
0.0174672
0.0174578
0.0174391
0.017411
0.0173736
0.0173267
0.0172704
0.0172044
0.0171287
0.0170433
0.0169479
0.0168424
0.016727
0.0166016
0.0164658
0.0163194
0.0161624
0.0159942
0.0158149
0.0156239
0.0154211
0.0152061
0.0149785
0.0147382
0.0144846
0.0142176
0.0139366
0.0136416
0.0133321
0.013008
0.0126689
0.0123144
0.0119444
0.0115587
0.0111574
0.0107406
0.0103086
0.00986181
0.00940108
0.0089273
0.00844199
0.00794702
0.00744461
0.00693769
0.00642955
0.00592395
0.00542476
0.00493593
0.00446098
0.00400243
0.00356148
0.00313964
0.00273687
0.00234845
0.00196115
0.00155336
0.00110812
0.00066314
0.000310882
0.000153998
0.0167066
0.0166973
0.0166787
0.0166506
0.0166131
0.0165663
0.0165101
0.0164444
0.0163694
0.0162848
0.0161906
0.0160865
0.0159727
0.015849
0.0157154
0.0155715
0.0154174
0.0152527
0.0150775
0.0148911
0.0146934
0.0144841
0.0142631
0.01403
0.0137845
0.0135265
0.0132556
0.0129715
0.0126738
0.0123622
0.0120365
0.0116961
0.0113409
0.0109707
0.0105856
0.0101858
0.00977141
0.00934289
0.00890091
0.00844647
0.00798108
0.00750657
0.00702534
0.00654045
0.00605549
0.00557479
0.00510294
0.00464499
0.00420598
0.00379083
0.00340039
0.00303226
0.00267746
0.00232385
0.00196137
0.0015753
0.00115662
0.000720444
0.000341211
0.000157104
0.0159819
0.0159728
0.0159544
0.0159268
0.01589
0.015844
0.0157888
0.0157244
0.0156507
0.0155677
0.0154754
0.0153736
0.0152626
0.0151419
0.0150117
0.0148719
0.0147225
0.0145632
0.0143938
0.0142139
0.0140235
0.0138224
0.0136103
0.0133871
0.0131525
0.0129064
0.0126485
0.0123785
0.012096
0.0118008
0.0114926
0.011171
0.0108359
0.0104871
0.0101249
0.00974937
0.00936064
0.00895901
0.00854512
0.00811977
0.00768441
0.00724059
0.00679054
0.00633695
0.0058827
0.00543114
0.00498599
0.00455103
0.00412989
0.00372569
0.00333846
0.00297065
0.00262374
0.00229274
0.00195944
0.00160281
0.00119863
0.000753412
0.000361507
0.000156807
0.0153071
0.0152982
0.0152803
0.0152531
0.015217
0.015172
0.0151179
0.0150548
0.0149828
0.0149017
0.0148117
0.0147127
0.0146047
0.0144876
0.0143615
0.0142263
0.0140821
0.0139285
0.0137654
0.0135925
0.0134098
0.0132172
0.0130143
0.0128012
0.0125775
0.012343
0.0120975
0.0118407
0.0115723
0.0112919
0.0109992
0.010694
0.0103759
0.0100448
0.00970076
0.00934374
0.00897385
0.0085913
0.00819642
0.00779008
0.00737331
0.00694767
0.00651552
0.00607936
0.00564222
0.00520788
0.0047808
0.00436577
0.0039677
0.00359069
0.00323557
0.00290313
0.00258583
0.00227384
0.00195767
0.00161925
0.00123857
0.000810319
0.000393575
0.000155903
0.0146886
0.0146798
0.0146622
0.0146356
0.0146003
0.0145562
0.0145033
0.0144418
0.0143716
0.0142926
0.014205
0.0141087
0.0140038
0.0138903
0.0137684
0.0136378
0.0134987
0.0133507
0.0131938
0.0130279
0.0128529
0.0126686
0.0124748
0.0122715
0.0120584
0.0118356
0.0116025
0.0113589
0.0111046
0.0108391
0.0105624
0.0102739
0.00997334
0.00966058
0.00933553
0.00899827
0.0086487
0.00828713
0.00791386
0.00752948
0.00713512
0.00673221
0.00632281
0.00590919
0.0054939
0.00508041
0.00467227
0.00427354
0.00388838
0.00351829
0.00316673
0.00283499
0.00252512
0.00223284
0.00194143
0.00163197
0.00127301
0.000844509
0.000415422
0.000155386
0.0141314
0.0141227
0.0141054
0.0140795
0.0140451
0.0140021
0.0139505
0.0138904
0.0138218
0.0137448
0.0136595
0.0135658
0.0134639
0.0133537
0.0132355
0.0131092
0.0129747
0.0128319
0.0126807
0.0125212
0.0123532
0.0121765
0.0119909
0.0117965
0.0115932
0.0113808
0.0111588
0.0109271
0.0106853
0.0104331
0.0101703
0.00989621
0.00961074
0.00931352
0.00900428
0.00868303
0.00834976
0.00800445
0.0076474
0.00727908
0.00690039
0.00651265
0.00611777
0.00571793
0.00531604
0.00491561
0.00452079
0.00413613
0.00376619
0.00341465
0.00308439
0.00277673
0.00248766
0.00221013
0.00193213
0.0016395
0.00130548
0.000899217
0.000453333
0.000154369
0.0136352
0.0136266
0.0136096
0.0135842
0.0135505
0.0135083
0.0134577
0.0133988
0.0133316
0.0132563
0.0131729
0.0130815
0.0129822
0.012875
0.0127601
0.0126373
0.0125067
0.0123683
0.012222
0.0120678
0.0119057
0.0117355
0.0115571
0.0113706
0.0111757
0.0109723
0.01076
0.0105386
0.0103077
0.0100671
0.0098163
0.00955506
0.00928284
0.00899957
0.00870477
0.00839847
0.00808056
0.00775093
0.00740984
0.00705777
0.00669547
0.00632429
0.00594598
0.00556244
0.00517639
0.00479098
0.00440994
0.00403678
0.00367682
0.00333166
0.00300449
0.00269745
0.00241326
0.00214956
0.00189733
0.00163236
0.00132253
0.000931565
0.000480607
0.000153578
0.0131987
0.0131904
0.0131738
0.0131489
0.0131156
0.0130741
0.0130242
0.0129662
0.0129002
0.0128262
0.0127444
0.0126549
0.0125576
0.0124527
0.0123404
0.0122206
0.0120933
0.0119585
0.0118162
0.0116665
0.0115092
0.0113443
0.0111718
0.0109916
0.0108036
0.0106076
0.0104033
0.0101905
0.0099687
0.00973764
0.00949698
0.00924637
0.00898526
0.00871347
0.00843068
0.00813658
0.00783106
0.00751405
0.00718543
0.00684588
0.00649582
0.00613655
0.00576972
0.0053972
0.00502174
0.00464664
0.00427526
0.00391349
0.00356544
0.00323378
0.0029227
0.00263401
0.00236618
0.00211439
0.00187178
0.001621
0.00133626
0.000978574
0.00052381
0.000152077
0.0128189
0.0128107
0.0127943
0.0127696
0.0127366
0.0126955
0.0126462
0.0125888
0.0125236
0.0124505
0.0123698
0.0122814
0.0121857
0.0120825
0.011972
0.0118542
0.0117293
0.0115973
0.0114581
0.0113118
0.0111582
0.0109973
0.0108292
0.0106538
0.0104711
0.0102808
0.0100826
0.00987631
0.00966155
0.00943802
0.00920539
0.00896323
0.00871103
0.00844856
0.0081755
0.00789154
0.00759641
0.00729
0.00697234
0.00664398
0.00630533
0.00595768
0.00560255
0.00524171
0.00487777
0.00451316
0.00415298
0.00380121
0.00345992
0.00313319
0.00282402
0.00253508
0.00226956
0.00202857
0.00180632
0.0015846
0.0013316
0.00100212
0.000556324
0.000150804
0.0124919
0.0124836
0.0124672
0.0124426
0.0124098
0.012369
0.01232
0.0122631
0.0121984
0.012126
0.0120458
0.0119583
0.0118633
0.0117613
0.0116519
0.0115356
0.0114122
0.0112819
0.0111447
0.0110006
0.0108496
0.0106916
0.0105266
0.0103546
0.0101755
0.00998938
0.00979569
0.00959419
0.00938467
0.00916679
0.00894003
0.00870411
0.00845851
0.00820329
0.00793766
0.00766136
0.00737408
0.00707571
0.00676621
0.00644592
0.00611545
0.00577599
0.00542891
0.00507614
0.00471951
0.00436325
0.00401162
0.00366864
0.00333735
0.00302308
0.00272974
0.00245677
0.00220451
0.00197315
0.00175593
0.00154272
0.0013109
0.00102061
0.000596174
0.000148455
0.0122131
0.0122048
0.0121882
0.0121636
0.0121309
0.0120902
0.0120415
0.0119847
0.0119202
0.011848
0.0117681
0.0116808
0.0115862
0.0114846
0.0113758
0.01126
0.0111374
0.0110079
0.0108719
0.010729
0.0105793
0.0104229
0.0102597
0.0100896
0.00991275
0.00972905
0.00953813
0.00933957
0.00913319
0.0089187
0.00869573
0.00846379
0.00822262
0.00797206
0.00771152
0.0074405
0.0071587
0.00686594
0.00656234
0.00624821
0.00592398
0.00559109
0.005251
0.00490527
0.00455582
0.00420743
0.00386332
0.00352735
0.00320146
0.0028892
0.00259549
0.00232438
0.00208001
0.00185671
0.00165089
0.00145699
0.00125623
0.00100804
0.000624258
0.000146461
0.011978
0.0119697
0.0119532
0.0119286
0.0118957
0.0118548
0.0118059
0.011749
0.0116843
0.0116119
0.0115319
0.0114445
0.01135
0.0112483
0.0111394
0.0110237
0.0109012
0.0107718
0.010636
0.0104934
0.0103441
0.0101882
0.0100256
0.00985642
0.00968046
0.00949778
0.009308
0.00911077
0.00890591
0.00869308
0.00847191
0.00824189
0.00800322
0.00775523
0.0074973
0.00722902
0.00695015
0.00666049
0.00636015
0.00604924
0.00572839
0.00539908
0.00506277
0.00472089
0.004376
0.00403298
0.00369518
0.00336702
0.00305139
0.00275255
0.00247305
0.00221829
0.00198137
0.00176136
0.00155861
0.0013716
0.00119
0.000984496
0.000650886
0.000142352
0.0117823
0.0117739
0.0117572
0.0117324
0.0116992
0.0116581
0.0116089
0.0115515
0.0114864
0.0114136
0.0113332
0.0112455
0.0111504
0.0110482
0.0109388
0.0108224
0.0106993
0.0105694
0.010433
0.0102901
0.0101406
0.00998434
0.00982142
0.00965179
0.00947558
0.00929258
0.00910244
0.00890502
0.00869996
0.00848691
0.00826551
0.00803553
0.00779682
0.00754881
0.00729093
0.00702273
0.00674395
0.00645445
0.00615431
0.00584386
0.00552379
0.00519545
0.00486073
0.00452146
0.00417937
0.00383985
0.00350701
0.00318329
0.00287267
0.00257728
0.00230614
0.00205645
0.00182592
0.00161015
0.00141008
0.00122503
0.00105144
0.000882361
0.0006317
0.000135966
0.0116208
0.0116123
0.0115955
0.0115703
0.011537
0.0114955
0.0114457
0.0113878
0.011322
0.0112484
0.0111673
0.0110786
0.0109825
0.0108792
0.0107688
0.0106513
0.0105271
0.010396
0.0102583
0.0101142
0.00996341
0.00980591
0.00964161
0.00947054
0.00929275
0.00910824
0.00891645
0.00871723
0.00851028
0.00829525
0.00807171
0.00783986
0.00759899
0.00734864
0.00708815
0.00681718
0.00653552
0.00624298
0.00593968
0.00562606
0.00530272
0.00497082
0.00463187
0.004289
0.00394432
0.00360332
0.00327291
0.00295495
0.00265479
0.00237776
0.00212317
0.00188955
0.00167814
0.00147759
0.00128701
0.00110029
0.000927178
0.000775203
0.000573753
0.000124133
0.0114839
0.0114754
0.0114584
0.0114331
0.0113994
0.0113574
0.011307
0.0112485
0.011182
0.0111076
0.0110256
0.0109359
0.0108388
0.0107343
0.0106226
0.0105039
0.0103782
0.0102457
0.0101067
0.00996095
0.00980854
0.0096493
0.00948314
0.00931018
0.00913016
0.0089433
0.0087489
0.00854681
0.00833673
0.00811832
0.00789165
0.00765608
0.00741121
0.00715618
0.00689072
0.00661439
0.0063269
0.00602818
0.00571845
0.00539823
0.00506828
0.00472998
0.00438567
0.00404027
0.00369513
0.00335537
0.00302486
0.00270829
0.00241078
0.00213635
0.00188569
0.00166096
0.00145492
0.00125524
0.00106147
0.000862323
0.000661968
0.000466073
0.00026175
0.000119204
0.011369
0.011361
0.011345
0.011321
0.0112893
0.0112498
0.0112025
0.0111475
0.0110849
0.0110148
0.0109375
0.0108531
0.0107618
0.0106636
0.0105586
0.010447
0.0103288
0.0102042
0.0100736
0.00993693
0.0097944
0.00964568
0.00949057
0.00932937
0.00916195
0.00898844
0.00880828
0.00862113
0.00842637
0.0082236
0.0080135
0.00779544
0.00756908
0.00733382
0.00708901
0.00683426
0.00656919
0.00629338
0.00600683
0.00570973
0.00540185
0.00508267
0.0047533
0.0044153
0.00407178
0.00372808
0.00338759
0.00305412
0.00273576
0.00243796
0.00216276
0.00191108
0.00168311
0.00147709
0.00127911
0.00107316
0.000851657
0.000609866
0.000368987
0.00014094
0.0112795
0.0112717
0.0112562
0.011233
0.0112021
0.0111635
0.0111172
0.0110635
0.0110023
0.0109339
0.0108583
0.0107755
0.0106859
0.0105896
0.0104864
0.0103767
0.0102603
0.0101376
0.0100087
0.0098739
0.00973307
0.00958651
0.0094341
0.00927552
0.00911053
0.0089391
0.00876116
0.00857621
0.00838384
0.00818395
0.00797661
0.00776148
0.00753805
0.00730594
0.00706448
0.00681333
0.00655205
0.00628016
0.00599758
0.00570472
0.00540208
0.0050917
0.0047741
0.00444995
0.00412125
0.00379068
0.00346156
0.00313408
0.00281118
0.00249811
0.00219944
0.0019216
0.00167068
0.00144509
0.00123759
0.00103563
0.000837615
0.000626828
0.000389519
0.000146097
0.0112117
0.0112041
0.011189
0.0111666
0.0111367
0.0110995
0.0110548
0.011003
0.0109439
0.0108777
0.0108046
0.0107245
0.0106376
0.0105441
0.010444
0.0103376
0.0102253
0.0101071
0.00998263
0.00985226
0.0097161
0.00957421
0.00942629
0.00927217
0.00911182
0.00894527
0.00877254
0.00859301
0.00840631
0.00821274
0.00801186
0.00780323
0.00758657
0.00736145
0.0071271
0.00688321
0.00662943
0.0063656
0.00609129
0.0058065
0.00551088
0.00520387
0.00488722
0.00456281
0.00423172
0.00389594
0.00355865
0.00322558
0.0028964
0.00257792
0.00227591
0.00199306
0.00172987
0.00148657
0.00126283
0.00105072
0.000842941
0.00063085
0.00038983
0.000151401
0.0111565
0.0111492
0.0111348
0.0111132
0.0110842
0.0110481
0.0110049
0.0109547
0.0108975
0.0108335
0.0107627
0.0106853
0.0106013
0.0105106
0.0104135
0.01031
0.0102003
0.0100844
0.00996255
0.00983478
0.00970124
0.00956186
0.00941689
0.00926571
0.00910822
0.00894459
0.00877473
0.0085986
0.00841535
0.0082255
0.00802833
0.00782332
0.0076099
0.00738789
0.00715673
0.00691603
0.00666518
0.00640369
0.00613167
0.00584899
0.00555543
0.00525209
0.0049392
0.00461751
0.00428802
0.00395296
0.00361518
0.00327885
0.00294712
0.00262352
0.00231416
0.00202304
0.00175461
0.00150952
0.00128304
0.00106982
0.000858521
0.00064369
0.00040475
0.000154827
0.0111197
0.0111128
0.0110986
0.0110775
0.0110493
0.0110139
0.0109718
0.0109227
0.010867
0.0108043
0.010735
0.0106591
0.0105767
0.0104879
0.0103929
0.0102914
0.0101835
0.0100692
0.00994885
0.00982249
0.00969043
0.00955265
0.0094093
0.00925977
0.00910428
0.00894269
0.008775
0.00860113
0.00842026
0.008233
0.00803867
0.00783735
0.00762867
0.00741228
0.00718759
0.00695406
0.006711
0.0064574
0.00619294
0.00591687
0.00562922
0.00532995
0.00501961
0.00469909
0.00436957
0.00403316
0.00369298
0.00335249
0.0030155
0.00268317
0.00236299
0.0020616
0.00178218
0.00152663
0.00129321
0.00107654
0.000863086
0.000646539
0.000404696
0.000157508
0.0110942
0.0110873
0.0110736
0.011053
0.0110251
0.0109902
0.0109486
0.0109002
0.0108451
0.0107834
0.010715
0.0106401
0.0105588
0.010471
0.0103771
0.0102772
0.0101717
0.0100606
0.00994377
0.00982117
0.00969279
0.00955845
0.00941822
0.00927233
0.00912012
0.00896137
0.00879618
0.00862447
0.00844537
0.00825931
0.00806595
0.00786506
0.00765674
0.00744106
0.00721681
0.00698363
0.00674111
0.0064887
0.00622605
0.0059525
0.00566792
0.00537133
0.00506278
0.00474266
0.00441299
0.00407586
0.00373418
0.00339216
0.00305305