/*--------------------------------*- C++ -*----------------------------------*\
| =========                 |                                                 |
| \\      /  F ield         | OpenFOAM: The Open Source CFD Toolbox           |
|  \\    /   O peration     | Version:  v1906                                 |
|   \\  /    A nd           | Web:      www.OpenFOAM.com                      |
|    \\/     M anipulation  |                                                 |
\*---------------------------------------------------------------------------*/
FoamFile
{
    version     2.0;
    format      ascii;
    class       volScalarField;
    location    "2.83";
    object      C2H2;
}
// * * * * * * * * * * * * * * * * * * * * * * * * * * * * * * * * * * * * * //

dimensions      [0 0 0 0 0 0 0];


internalField   nonuniform List<scalar> 
26400
(
2.09674e-07
2.09402e-07
2.08859e-07
2.08046e-07
2.06966e-07
2.0562e-07
2.04011e-07
2.02145e-07
2.00023e-07
1.97652e-07
1.95037e-07
1.92184e-07
1.89099e-07
1.85789e-07
1.82262e-07
1.78526e-07
1.7459e-07
1.70463e-07
1.66154e-07
1.61673e-07
1.57031e-07
1.52238e-07
1.47307e-07
1.42247e-07
1.37072e-07
1.31792e-07
1.26421e-07
1.20972e-07
1.15457e-07
1.09889e-07
1.04292e-07
9.86779e-08
9.3053e-08
8.74308e-08
8.18252e-08
7.62505e-08
7.07215e-08
6.52532e-08
5.98611e-08
5.45602e-08
4.9368e-08
4.43021e-08
3.93811e-08
3.46254e-08
3.00573e-08
2.57025e-08
2.1591e-08
1.77592e-08
1.42531e-08
1.11319e-08
8.4733e-09
6.37406e-09
4.62696e-09
3.26086e-09
2.15205e-09
7.0913e-10
1.66451e-10
2.39578e-11
1.48741e-12
3.55529e-14
2.19687e-07
2.19402e-07
2.18832e-07
2.17981e-07
2.16848e-07
2.15438e-07
2.13752e-07
2.11796e-07
2.09573e-07
2.07089e-07
2.0435e-07
2.01361e-07
1.98129e-07
1.94663e-07
1.90969e-07
1.87058e-07
1.82937e-07
1.78616e-07
1.74106e-07
1.69418e-07
1.64561e-07
1.59547e-07
1.54389e-07
1.49098e-07
1.43687e-07
1.38169e-07
1.32556e-07
1.26862e-07
1.21101e-07
1.15287e-07
1.09442e-07
1.0358e-07
9.77079e-08
9.18393e-08
8.59891e-08
8.01721e-08
7.44032e-08
6.86982e-08
6.30731e-08
5.75427e-08
5.21252e-08
4.68387e-08
4.17023e-08
3.67366e-08
3.19642e-08
2.74107e-08
2.31065e-08
1.90889e-08
1.54065e-08
1.21282e-08
9.36092e-09
6.96244e-09
4.98395e-09
3.44103e-09
2.2161e-09
7.28373e-10
1.6895e-10
2.39573e-11
1.48265e-12
3.56784e-14
2.32338e-07
2.32035e-07
2.3143e-07
2.30525e-07
2.29322e-07
2.27824e-07
2.26035e-07
2.23957e-07
2.21598e-07
2.18961e-07
2.16053e-07
2.12881e-07
2.09452e-07
2.05775e-07
2.01858e-07
1.97711e-07
1.93342e-07
1.88764e-07
1.83986e-07
1.7902e-07
1.73878e-07
1.68572e-07
1.63114e-07
1.57518e-07
1.51797e-07
1.45965e-07
1.40036e-07
1.34023e-07
1.27942e-07
1.21807e-07
1.15642e-07
1.09461e-07
1.03271e-07
9.70874e-08
9.09253e-08
8.48005e-08
7.87281e-08
7.27251e-08
6.6808e-08
6.09916e-08
5.52946e-08
4.97363e-08
4.43361e-08
3.9115e-08
3.40958e-08
2.93041e-08
2.47697e-08
2.05288e-08
1.66278e-08
1.31312e-08
1.01391e-08
7.51937e-09
5.33492e-09
3.61658e-09
2.27001e-09
7.41422e-10
1.69728e-10
2.37013e-11
1.45521e-12
3.50249e-14
2.46171e-07
2.45848e-07
2.45204e-07
2.44239e-07
2.42956e-07
2.41359e-07
2.39451e-07
2.37238e-07
2.34723e-07
2.31913e-07
2.28815e-07
2.25437e-07
2.21786e-07
2.17872e-07
2.13704e-07
2.09291e-07
2.04646e-07
1.99778e-07
1.947e-07
1.89424e-07
1.83963e-07
1.7833e-07
1.7254e-07
1.66605e-07
1.6054e-07
1.5436e-07
1.48081e-07
1.41716e-07
1.35282e-07
1.28795e-07
1.2228e-07
1.15751e-07
1.09215e-07
1.02688e-07
9.61879e-08
8.97303e-08
8.33308e-08
7.70068e-08
7.07765e-08
6.46545e-08
5.86598e-08
5.28125e-08
4.71331e-08
4.16428e-08
3.6365e-08
3.13253e-08
2.65537e-08
2.20857e-08
1.79655e-08
1.42498e-08
1.10116e-08
8.14823e-09
5.73184e-09
3.80514e-09
2.3027e-09
7.4313e-10
1.67317e-10
2.28304e-11
1.38516e-12
3.34976e-14
2.60934e-07
2.60589e-07
2.59901e-07
2.5887e-07
2.57501e-07
2.55796e-07
2.5376e-07
2.51397e-07
2.48713e-07
2.45715e-07
2.42411e-07
2.38809e-07
2.34916e-07
2.30744e-07
2.26303e-07
2.21603e-07
2.16656e-07
2.11475e-07
2.06072e-07
2.00461e-07
1.94656e-07
1.8867e-07
1.8252e-07
1.7622e-07
1.69785e-07
1.63232e-07
1.56576e-07
1.49834e-07
1.43023e-07
1.36159e-07
1.2927e-07
1.22369e-07
1.15464e-07
1.08574e-07
1.01714e-07
9.49034e-08
8.81574e-08
8.14944e-08
7.4933e-08
6.84884e-08
6.21798e-08
5.6028e-08
5.00545e-08
4.42813e-08
3.8732e-08
3.3433e-08
2.8415e-08
2.37154e-08
1.93828e-08
1.54877e-08
1.19459e-08
8.81265e-09
6.14418e-09
3.97356e-09
2.24634e-09
7.16354e-10
1.6001e-10
2.15789e-11
1.30065e-12
3.16245e-14
2.7662e-07
2.76252e-07
2.75516e-07
2.74415e-07
2.72952e-07
2.7113e-07
2.68954e-07
2.6643e-07
2.63564e-07
2.60363e-07
2.56835e-07
2.5299e-07
2.48837e-07
2.44387e-07
2.3965e-07
2.3464e-07
2.29369e-07
2.2385e-07
2.18097e-07
2.12126e-07
2.0595e-07
1.99586e-07
1.9305e-07
1.86358e-07
1.79527e-07
1.72574e-07
1.65517e-07
1.58372e-07
1.51158e-07
1.43894e-07
1.36606e-07
1.29311e-07
1.22016e-07
1.1474e-07
1.07501e-07
1.00318e-07
9.32069e-08
8.61873e-08
7.92782e-08
7.24955e-08
6.58591e-08
5.93901e-08
5.31105e-08
4.70432e-08
4.12121e-08
3.5644e-08
3.03692e-08
2.54238e-08
2.0851e-08
1.67032e-08
1.291e-08
9.52817e-09
6.60532e-09
4.1389e-09
1.91356e-09
6.63731e-10
1.54214e-10
2.08793e-11
1.25541e-12
3.07436e-14
2.93279e-07
2.92885e-07
2.92098e-07
2.90921e-07
2.89356e-07
2.87408e-07
2.85082e-07
2.82383e-07
2.7932e-07
2.75899e-07
2.7213e-07
2.68023e-07
2.63589e-07
2.58838e-07
2.53784e-07
2.4844e-07
2.42819e-07
2.36936e-07
2.30808e-07
2.24448e-07
2.17875e-07
2.11105e-07
2.04155e-07
1.97044e-07
1.89789e-07
1.82408e-07
1.74922e-07
1.67347e-07
1.59704e-07
1.52013e-07
1.44302e-07
1.36588e-07
1.28879e-07
1.21195e-07
1.13555e-07
1.05979e-07
9.84836e-08
9.1089e-08
8.38149e-08
7.66774e-08
6.96974e-08
6.2896e-08
5.62957e-08
4.99205e-08
4.37949e-08
3.79464e-08
3.24071e-08
2.72172e-08
2.24304e-08
1.7986e-08
1.39263e-08
1.02988e-08
7.14856e-09
4.48015e-09
2.10508e-09
7.37576e-10
1.70025e-10
2.23214e-11
1.31807e-12
3.22738e-14
3.10976e-07
3.10554e-07
3.09712e-07
3.08453e-07
3.06778e-07
3.04694e-07
3.02205e-07
2.99318e-07
2.96041e-07
2.92383e-07
2.88354e-07
2.83964e-07
2.79225e-07
2.74151e-07
2.68754e-07
2.63049e-07
2.57052e-07
2.50778e-07
2.44245e-07
2.37469e-07
2.30468e-07
2.23262e-07
2.15868e-07
2.08307e-07
2.00598e-07
1.9276e-07
1.84814e-07
1.76781e-07
1.68681e-07
1.60534e-07
1.52373e-07
1.44214e-07
1.36066e-07
1.2795e-07
1.19886e-07
1.11895e-07
1.03995e-07
9.62076e-08
8.85485e-08
8.10385e-08
7.36988e-08
6.65509e-08
5.96172e-08
5.29216e-08
4.64891e-08
4.03465e-08
3.45246e-08
2.90612e-08
2.40061e-08
1.93006e-08
1.49878e-08
1.11163e-08
7.73411e-09
4.85596e-09
2.325e-09
8.2641e-10
1.89353e-10
2.39969e-11
1.38787e-12
3.39768e-14
3.29783e-07
3.29331e-07
3.28429e-07
3.2708e-07
3.25287e-07
3.23056e-07
3.20392e-07
3.17303e-07
3.13796e-07
3.09882e-07
3.05571e-07
3.00875e-07
2.95808e-07
2.90384e-07
2.84618e-07
2.78524e-07
2.72121e-07
2.65426e-07
2.58457e-07
2.51233e-07
2.43773e-07
2.36098e-07
2.28228e-07
2.20185e-07
2.11989e-07
2.03661e-07
1.95225e-07
1.86701e-07
1.78113e-07
1.69481e-07
1.60841e-07
1.52208e-07
1.43593e-07
1.35019e-07
1.26506e-07
1.18076e-07
1.09749e-07
1.01546e-07
9.34837e-08
8.55843e-08
7.7869e-08
7.03596e-08
6.30787e-08
5.60502e-08
4.92997e-08
4.28538e-08
3.67419e-08
3.09978e-08
2.566e-08
2.06789e-08
1.61e-08
1.19724e-08
8.34517e-09
5.24471e-09
2.55631e-09
9.24145e-10
2.10784e-10
2.55294e-11
1.42967e-12
3.4552e-14
3.49781e-07
3.49297e-07
3.4833e-07
3.46883e-07
3.44962e-07
3.4257e-07
3.39717e-07
3.36409e-07
3.32655e-07
3.28465e-07
3.23851e-07
3.18827e-07
3.13407e-07
3.07605e-07
3.0144e-07
2.94928e-07
2.88087e-07
2.80938e-07
2.735e-07
2.65794e-07
2.5784e-07
2.49662e-07
2.41281e-07
2.3272e-07
2.24002e-07
2.1515e-07
2.06189e-07
1.97141e-07
1.8803e-07
1.78881e-07
1.6973e-07
1.60593e-07
1.51482e-07
1.42421e-07
1.33433e-07
1.2454e-07
1.15762e-07
1.07119e-07
9.86329e-08
9.03245e-08
8.2216e-08
7.43294e-08
6.66875e-08
5.93143e-08
5.2236e-08
4.54807e-08
3.90806e-08
3.30757e-08
2.74193e-08
2.2143e-08
1.72835e-08
1.28832e-08
8.98672e-09
5.62944e-09
2.79793e-09
1.0336e-09
2.36284e-10
2.71968e-11
1.46853e-12
3.48364e-14
3.71062e-07
3.70542e-07
3.69504e-07
3.67953e-07
3.65891e-07
3.63326e-07
3.60266e-07
3.5672e-07
3.52698e-07
3.48212e-07
3.43273e-07
3.37895e-07
3.32095e-07
3.25888e-07
3.19294e-07
3.12331e-07
3.0502e-07
2.97382e-07
2.89439e-07
2.81214e-07
2.7273e-07
2.64011e-07
2.55081e-07
2.45965e-07
2.36687e-07
2.27274e-07
2.1775e-07
2.08141e-07
1.98473e-07
1.88771e-07
1.79074e-07
1.69399e-07
1.59761e-07
1.50182e-07
1.40689e-07
1.31302e-07
1.22047e-07
1.12941e-07
1.04009e-07
9.52709e-08
8.67502e-08
7.84687e-08
7.0449e-08
6.27149e-08
5.52915e-08
4.82071e-08
4.1492e-08
3.51839e-08
2.92348e-08
2.36743e-08
1.85359e-08
1.38549e-08
9.6591e-09
5.92615e-09
3.05067e-09
1.16035e-09
2.66407e-10
2.88313e-11
1.4785e-12
3.37651e-14
3.93725e-07
3.93167e-07
3.92053e-07
3.90388e-07
3.88175e-07
3.85423e-07
3.8214e-07
3.78337e-07
3.74024e-07
3.69216e-07
3.63926e-07
3.58168e-07
3.51959e-07
3.45317e-07
3.38262e-07
3.30815e-07
3.22999e-07
3.14836e-07
3.06351e-07
2.97569e-07
2.88515e-07
2.79215e-07
2.69695e-07
2.59984e-07
2.50106e-07
2.40091e-07
2.29964e-07
2.19755e-07
2.0949e-07
1.99197e-07
1.88917e-07
1.78668e-07
1.68465e-07
1.58334e-07
1.48301e-07
1.38388e-07
1.28628e-07
1.19035e-07
1.09632e-07
1.00442e-07
9.14882e-08
8.2793e-08
7.43789e-08
6.62695e-08
5.84891e-08
5.1065e-08
4.40265e-08
3.74085e-08
3.11626e-08
2.5316e-08
1.98996e-08
1.49479e-08
1.04925e-08
6.52637e-09
3.42423e-09
1.32898e-09
3.04963e-10
3.0802e-11
1.50004e-12
3.24359e-14
4.17884e-07
4.17285e-07
4.16089e-07
4.14301e-07
4.11926e-07
4.08972e-07
4.05449e-07
4.01368e-07
3.96742e-07
3.91586e-07
3.85915e-07
3.79748e-07
3.731e-07
3.6599e-07
3.58441e-07
3.50475e-07
3.42117e-07
3.33392e-07
3.24327e-07
3.14947e-07
3.05282e-07
2.95359e-07
2.85208e-07
2.74858e-07
2.64337e-07
2.53677e-07
2.42905e-07
2.32053e-07
2.21149e-07
2.10223e-07
1.99319e-07
1.88456e-07
1.7765e-07
1.6693e-07
1.56321e-07
1.45851e-07
1.35552e-07
1.25438e-07
1.15535e-07
1.05865e-07
9.6453e-08
8.7321e-08
7.84924e-08
6.99901e-08
6.18381e-08
5.4062e-08
4.66901e-08
3.97546e-08
3.32057e-08
2.70671e-08
2.13652e-08
1.6131e-08
1.13988e-08
7.19913e-09
3.8576e-09
1.53151e-09
3.51346e-10
3.29149e-11
1.52567e-12
3.08889e-14
4.43663e-07
4.4302e-07
4.41736e-07
4.39816e-07
4.37267e-07
4.34097e-07
4.30317e-07
4.25939e-07
4.20978e-07
4.15449e-07
4.0937e-07
4.02761e-07
3.95642e-07
3.88032e-07
3.79954e-07
3.71432e-07
3.62495e-07
3.53168e-07
3.4348e-07
3.33461e-07
3.23142e-07
3.12552e-07
3.01724e-07
2.90689e-07
2.7948e-07
2.68129e-07
2.56667e-07
2.45126e-07
2.33538e-07
2.21935e-07
2.10362e-07
1.98841e-07
1.87389e-07
1.76035e-07
1.64808e-07
1.53744e-07
1.4287e-07
1.32201e-07
1.21763e-07
1.11581e-07
1.0168e-07
9.20842e-08
8.28164e-08
7.38999e-08
6.53579e-08
5.7215e-08
4.94984e-08
4.22373e-08
3.53808e-08
2.89474e-08
2.2956e-08
1.74243e-08
1.23595e-08
7.96087e-09
4.36939e-09
1.78369e-09
4.09917e-10
3.76096e-11
1.63982e-12
3.0719e-14
4.71196e-07
4.70506e-07
4.69129e-07
4.67069e-07
4.64336e-07
4.60937e-07
4.56884e-07
4.52191e-07
4.46873e-07
4.40948e-07
4.34435e-07
4.27355e-07
4.19732e-07
4.11589e-07
4.02948e-07
3.93835e-07
3.8428e-07
3.74311e-07
3.6396e-07
3.5326e-07
3.42242e-07
3.30941e-07
3.1939e-07
3.07624e-07
2.95677e-07
2.83585e-07
2.71382e-07
2.59103e-07
2.46781e-07
2.34451e-07
2.22162e-07
2.09935e-07
1.9779e-07
1.85758e-07
1.7387e-07
1.62165e-07
1.50671e-07
1.39403e-07
1.2839e-07
1.17657e-07
1.07232e-07
9.71372e-08
8.73984e-08
7.80386e-08
6.90812e-08
6.05502e-08
5.24711e-08
4.48719e-08
3.77017e-08
3.09754e-08
2.47069e-08
1.89084e-08
1.35836e-08
8.90652e-09
5.01173e-09
2.11589e-09
4.93274e-10
4.53549e-11
1.88549e-12
3.31937e-14
5.00629e-07
4.99889e-07
4.98413e-07
4.96207e-07
4.93278e-07
4.89636e-07
4.85295e-07
4.80269e-07
4.74576e-07
4.68233e-07
4.61264e-07
4.53689e-07
4.45535e-07
4.36827e-07
4.27594e-07
4.17858e-07
4.07652e-07
3.97006e-07
3.85954e-07
3.74531e-07
3.62772e-07
3.50714e-07
3.38394e-07
3.25849e-07
3.13116e-07
3.00234e-07
2.8724e-07
2.74171e-07
2.61064e-07
2.47956e-07
2.34897e-07
2.21911e-07
2.09019e-07
1.96254e-07
1.83658e-07
1.71264e-07
1.591e-07
1.47186e-07
1.3555e-07
1.2422e-07
1.13225e-07
1.02589e-07
9.23386e-08
8.2498e-08
7.30909e-08
6.41412e-08
5.56739e-08
4.77162e-08
4.02188e-08
3.31931e-08
2.66474e-08
2.05869e-08
1.5009e-08
1.00544e-08
5.83998e-09
2.58555e-09
6.33418e-10
6.04612e-11
2.53015e-12
4.36845e-14
5.32133e-07
5.31341e-07
5.29762e-07
5.27402e-07
5.24269e-07
5.20375e-07
5.15733e-07
5.10359e-07
5.04272e-07
4.97493e-07
4.90044e-07
4.8195e-07
4.73238e-07
4.63936e-07
4.54075e-07
4.43687e-07
4.32799e-07
4.21444e-07
4.09659e-07
3.9748e-07
3.84947e-07
3.72097e-07
3.58971e-07
3.45607e-07
3.32047e-07
3.1833e-07
3.04496e-07
2.90585e-07
2.76639e-07
2.62695e-07
2.4881e-07
2.35007e-07
2.21312e-07
2.07759e-07
1.94393e-07
1.81249e-07
1.6836e-07
1.55742e-07
1.43427e-07
1.31445e-07
1.19825e-07
1.08595e-07
9.77821e-08
8.74114e-08
7.75079e-08
6.80963e-08
5.92017e-08
5.08519e-08
4.30067e-08
3.567e-08
2.88443e-08
2.25276e-08
1.67091e-08
1.14883e-08
6.94979e-09
3.28987e-09
8.92145e-10
9.38125e-11
4.42621e-12
8.01945e-14
5.65884e-07
5.6504e-07
5.63355e-07
5.60838e-07
5.57496e-07
5.53343e-07
5.48392e-07
5.42662e-07
5.36172e-07
5.28944e-07
5.21002e-07
5.12373e-07
5.03086e-07
4.93171e-07
4.8266e-07
4.71588e-07
4.5999e-07
4.47896e-07
4.35344e-07
4.22373e-07
4.09025e-07
3.95342e-07
3.81369e-07
3.6715e-07
3.52725e-07
3.38137e-07
3.23428e-07
3.08641e-07
2.93816e-07
2.78997e-07
2.64238e-07
2.49567e-07
2.35009e-07
2.20614e-07
2.06418e-07
1.92458e-07
1.78771e-07
1.65377e-07
1.52311e-07
1.39605e-07
1.2729e-07
1.15395e-07
1.03948e-07
9.29775e-08
8.25085e-08
7.2566e-08
6.31738e-08
5.4355e-08
4.61327e-08
3.84531e-08
3.13207e-08
2.47318e-08
1.86707e-08
1.32002e-08
8.36594e-09
4.296e-09
1.3486e-09
1.70927e-10
1.13048e-11
2.39976e-13
6.02062e-07
6.01164e-07
5.99374e-07
5.96698e-07
5.93147e-07
5.88733e-07
5.83473e-07
5.77385e-07
5.70489e-07
5.6281e-07
5.54372e-07
5.45205e-07
5.35338e-07
5.24803e-07
5.13636e-07
5.0187e-07
4.89545e-07
4.767e-07
4.63365e-07
4.49583e-07
4.35403e-07
4.20871e-07
4.06028e-07
3.90921e-07
3.75593e-07
3.60091e-07
3.44458e-07
3.28741e-07
3.12985e-07
2.97234e-07
2.81548e-07
2.65957e-07
2.50488e-07
2.35193e-07
2.20111e-07
2.0528e-07
1.90736e-07
1.765e-07
1.62608e-07
1.49094e-07
1.35992e-07
1.23332e-07
1.11148e-07
9.94677e-08
8.83204e-08
7.77338e-08
6.77347e-08
5.83501e-08
4.96081e-08
4.14682e-08
3.39365e-08
2.70101e-08
2.06739e-08
1.49613e-08
9.87977e-09
5.49183e-09
2.07282e-09
3.72156e-10
4.33813e-11
1.21389e-12
6.40835e-07
6.39885e-07
6.3799e-07
6.35158e-07
6.31401e-07
6.26731e-07
6.21165e-07
6.14724e-07
6.07428e-07
5.99304e-07
5.90377e-07
5.80679e-07
5.70239e-07
5.59092e-07
5.47274e-07
5.34822e-07
5.21775e-07
5.08175e-07
4.94062e-07
4.79477e-07
4.64467e-07
4.49078e-07
4.33357e-07
4.17352e-07
4.0111e-07
3.84679e-07
3.68106e-07
3.51438e-07
3.34723e-07
3.18008e-07
3.01356e-07
2.84796e-07
2.6837e-07
2.52121e-07
2.36091e-07
2.20318e-07
2.04844e-07
1.89692e-07
1.74898e-07
1.60499e-07
1.46528e-07
1.33019e-07
1.20004e-07
1.07514e-07
9.55801e-08
8.42306e-08
7.34939e-08
6.33983e-08
5.39741e-08
4.52344e-08
3.71617e-08
2.97656e-08
2.30457e-08
1.70258e-08
1.16994e-08
7.0855e-09
3.35964e-09
1.01443e-09
2.1142e-10
9.07962e-12
6.82687e-07
6.81687e-07
6.7969e-07
6.76708e-07
6.7275e-07
6.67832e-07
6.61972e-07
6.55189e-07
6.47508e-07
6.38954e-07
6.29555e-07
6.19342e-07
6.08349e-07
5.96611e-07
5.84165e-07
5.71049e-07
5.57306e-07
5.42977e-07
5.28102e-07
5.12726e-07
4.96898e-07
4.80666e-07
4.6408e-07
4.4719e-07
4.30045e-07
4.12696e-07
3.95193e-07
3.77585e-07
3.59922e-07
3.42252e-07
3.24642e-07
3.07124e-07
2.89741e-07
2.72539e-07
2.55559e-07
2.38841e-07
2.22427e-07
2.06355e-07
1.90647e-07
1.75339e-07
1.60468e-07
1.46067e-07
1.32168e-07
1.18804e-07
1.06008e-07
9.38105e-08
8.22391e-08
7.1323e-08
6.10976e-08
5.16015e-08
4.28574e-08
3.4866e-08
2.76488e-08
2.12042e-08
1.5549e-08
1.06971e-08
6.58656e-09
3.47693e-09
1.09697e-09
6.21686e-11
7.27569e-07
7.26451e-07
7.24221e-07
7.20889e-07
7.16468e-07
7.10976e-07
7.04432e-07
6.96861e-07
6.8829e-07
6.78747e-07
6.68267e-07
6.56885e-07
6.44638e-07
6.31568e-07
6.17718e-07
6.03132e-07
5.87858e-07
5.71937e-07
5.55422e-07
5.38365e-07
5.20821e-07
5.02848e-07
4.84501e-07
4.65838e-07
4.46917e-07
4.27796e-07
4.08533e-07
3.89185e-07
3.69808e-07
3.50458e-07
3.31206e-07
3.12105e-07
2.93193e-07
2.74521e-07
2.56138e-07
2.38092e-07
2.20429e-07
2.03175e-07
1.86373e-07
1.70065e-07
1.54288e-07
1.3908e-07
1.24475e-07
1.10508e-07
9.72107e-08
8.46237e-08
7.27972e-08
6.17838e-08
5.16278e-08
4.23467e-08
3.3911e-08
2.63294e-08
1.96054e-08
1.37946e-08
8.92657e-09
5.0485e-09
2.20056e-09
5.16605e-10
4.54942e-11
1.04496e-12
7.75047e-07
7.73794e-07
7.71296e-07
7.67563e-07
7.62611e-07
7.56461e-07
7.49136e-07
7.40664e-07
7.31078e-07
7.20411e-07
7.08702e-07
6.95994e-07
6.82331e-07
6.6776e-07
6.52332e-07
6.36099e-07
6.19104e-07
6.01407e-07
5.83069e-07
5.64152e-07
5.4472e-07
5.24838e-07
5.04572e-07
4.83988e-07
4.63155e-07
4.42138e-07
4.21006e-07
3.99824e-07
3.78658e-07
3.57572e-07
3.36645e-07
3.15936e-07
2.95494e-07
2.75376e-07
2.5564e-07
2.3634e-07
2.17509e-07
1.992e-07
1.81463e-07
1.64346e-07
1.47895e-07
1.32154e-07
1.17164e-07
1.02967e-07
8.95982e-08
7.70954e-08
6.5492e-08
5.48185e-08
4.50845e-08
3.63214e-08
2.84839e-08
2.15665e-08
1.56136e-08
1.06371e-08
6.6368e-09
3.58976e-09
1.47057e-09
3.17738e-10
2.51147e-11
5.26412e-13
8.2527e-07
8.23874e-07
8.21088e-07
8.16927e-07
8.11409e-07
8.04557e-07
7.96399e-07
7.86969e-07
7.76303e-07
7.64444e-07
7.51435e-07
7.37326e-07
7.22168e-07
7.06017e-07
6.8893e-07
6.70954e-07
6.52154e-07
6.32598e-07
6.12357e-07
5.91503e-07
5.70109e-07
5.4825e-07
5.26002e-07
5.03442e-07
4.80646e-07
4.57692e-07
4.34657e-07
4.11617e-07
3.88647e-07
3.65821e-07
3.43226e-07
3.20929e-07
2.98986e-07
2.77464e-07
2.56428e-07
2.35914e-07
2.15985e-07
1.96699e-07
1.78111e-07
1.60274e-07
1.43237e-07
1.27045e-07
1.11743e-07
9.73697e-08
8.39642e-08
7.1563e-08
6.0202e-08
4.98834e-08
4.0623e-08
3.24254e-08
2.51962e-08
1.88978e-08
1.35631e-08
9.1661e-09
5.66703e-09
3.02304e-09
1.21036e-09
2.51361e-10
1.83458e-11
3.4059e-13
8.78268e-07
8.76723e-07
8.73641e-07
8.69038e-07
8.62933e-07
8.55353e-07
8.46331e-07
8.35904e-07
8.24115e-07
8.11013e-07
7.9665e-07
7.81084e-07
7.64376e-07
7.46589e-07
7.27769e-07
7.07988e-07
6.87323e-07
6.6585e-07
6.4365e-07
6.20805e-07
5.97397e-07
5.73513e-07
5.49239e-07
5.24661e-07
4.99867e-07
4.74943e-07
4.49978e-07
4.25058e-07
4.00269e-07
3.75693e-07
3.51427e-07
3.27545e-07
3.04114e-07
2.81211e-07
2.58879e-07
2.37188e-07
2.16206e-07
1.95998e-07
1.76626e-07
1.58146e-07
1.4061e-07
1.24066e-07
1.08556e-07
9.41162e-08
8.07782e-08
6.85669e-08
5.75014e-08
4.75543e-08
3.87107e-08
3.09399e-08
2.41052e-08
1.81388e-08
1.30695e-08
8.87647e-09
5.53287e-09
2.99964e-09
1.24313e-09
2.77109e-10
2.08609e-11
3.99153e-13
9.33956e-07
9.32257e-07
9.28868e-07
9.23806e-07
9.17093e-07
9.08761e-07
8.98844e-07
8.87388e-07
8.74442e-07
8.60061e-07
8.44303e-07
8.27233e-07
8.08923e-07
7.89425e-07
7.68817e-07
7.47178e-07
7.24594e-07
7.01151e-07
6.76939e-07
6.52051e-07
6.26581e-07
6.00625e-07
5.74279e-07
5.47642e-07
5.20811e-07
4.93883e-07
4.66956e-07
4.40127e-07
4.13492e-07
3.87144e-07
3.61187e-07
3.35703e-07
3.10766e-07
2.86459e-07
2.6283e-07
2.39961e-07
2.17925e-07
1.96795e-07
1.76637e-07
1.57511e-07
1.39471e-07
1.22566e-07
1.06833e-07
9.23005e-08
7.89917e-08
6.69216e-08
5.60955e-08
4.64671e-08
3.79902e-08
3.05681e-08
2.4007e-08
1.82286e-08
1.32762e-08
9.13931e-09
5.8004e-09
3.22994e-09
1.40372e-09
3.4824e-10
2.83672e-11
5.39391e-13
9.92301e-07
9.90442e-07
9.86736e-07
9.812e-07
9.73858e-07
9.64743e-07
9.53897e-07
9.41372e-07
9.27235e-07
9.11538e-07
8.94345e-07
8.75728e-07
8.55753e-07
8.34501e-07
8.12057e-07
7.8851e-07
7.63955e-07
7.38488e-07
7.1221e-07
6.85225e-07
6.57638e-07
6.29556e-07
6.01089e-07
5.72344e-07
5.4343e-07
5.14454e-07
4.85523e-07
4.56745e-07
4.28225e-07
4.00068e-07
3.72388e-07
3.45275e-07
3.18814e-07
2.93062e-07
2.68108e-07
2.44037e-07
2.20931e-07
1.98868e-07
1.7792e-07
1.58154e-07
1.39627e-07
1.22385e-07
1.06459e-07
9.18649e-08
7.86103e-08
6.67048e-08
5.61148e-08
4.6828e-08
3.87779e-08
3.1658e-08
2.52177e-08
1.94167e-08
1.43452e-08
1.00461e-08
6.53883e-09
3.80229e-09
1.79102e-09
5.20468e-10
4.95008e-11
9.79831e-13
1.0533e-06
1.05128e-06
1.04725e-06
1.04122e-06
1.03324e-06
1.02331e-06
1.01149e-06
9.97841e-07
9.82488e-07
9.65442e-07
9.46773e-07
9.26557e-07
9.04879e-07
8.81828e-07
8.57498e-07
8.3199e-07
8.05409e-07
7.77861e-07
7.49458e-07
7.20314e-07
6.9055e-07
6.60286e-07
6.29641e-07
5.98737e-07
5.67694e-07
5.36622e-07
5.0564e-07
4.74866e-07
4.44416e-07
4.14399e-07
3.84942e-07
3.56143e-07
3.28096e-07
3.00864e-07
2.74547e-07
2.49237e-07
2.25021e-07
2.01984e-07
1.80206e-07
1.59764e-07
1.40723e-07
1.23136e-07
1.07025e-07
9.23565e-08
7.91155e-08
6.7302e-08
5.6892e-08
4.79507e-08
4.07126e-08
3.38757e-08
2.73722e-08
2.13883e-08
1.60646e-08
1.14942e-08
7.71956e-09
4.73063e-09
2.47642e-09
9.1143e-10
1.1548e-10
2.12352e-12
1.11697e-06
1.11478e-06
1.11043e-06
1.10392e-06
1.09529e-06
1.08459e-06
1.07185e-06
1.05714e-06
1.04052e-06
1.02207e-06
1.00187e-06
9.79994e-07
9.56548e-07
9.3163e-07
9.05345e-07
8.77805e-07
8.49124e-07
8.19421e-07
7.88811e-07
7.57425e-07
7.25398e-07
6.92866e-07
6.59961e-07
6.26817e-07
5.93566e-07
5.60326e-07
5.27225e-07
4.94391e-07
4.61947e-07
4.30014e-07
3.98718e-07
3.68168e-07
3.38459e-07
3.09691e-07
2.81961e-07
2.55364e-07
2.29988e-07
2.05924e-07
1.83264e-07
1.62101e-07
1.42523e-07
1.24617e-07
1.08458e-07
9.37684e-08
8.05515e-08
6.87828e-08
5.84023e-08
4.92999e-08
4.12851e-08
3.40334e-08
2.72849e-08
2.11534e-08
1.5752e-08
1.1168e-08
7.43687e-09
4.53302e-09
2.38021e-09
8.96783e-10
1.19806e-10
2.39723e-12
1.18386e-06
1.1815e-06
1.17679e-06
1.16976e-06
1.16044e-06
1.14887e-06
1.13511e-06
1.11923e-06
1.10128e-06
1.08137e-06
1.05956e-06
1.03597e-06
1.01068e-06
9.83829e-07
9.55518e-07
9.25873e-07
8.95023e-07
8.63078e-07
8.30179e-07
7.96471e-07
7.62102e-07
7.27221e-07
6.91978e-07
6.56519e-07
6.20987e-07
5.8551e-07
5.50226e-07
5.15271e-07
4.80777e-07
4.46873e-07
4.13695e-07
3.81356e-07
3.49959e-07
3.1961e-07
2.90412e-07
2.62463e-07
2.35853e-07
2.10683e-07
1.87051e-07
1.65061e-07
1.4482e-07
1.26449e-07
1.09702e-07
9.45644e-08
8.10136e-08
6.90071e-08
5.84703e-08
4.92751e-08
4.12002e-08
3.38439e-08
2.69929e-08
2.0793e-08
1.53678e-08
1.08014e-08
7.12425e-09
4.30466e-09
2.25549e-09
8.71025e-10
1.23689e-10
2.61372e-12
1.25384e-06
1.25129e-06
1.24621e-06
1.23863e-06
1.22858e-06
1.21611e-06
1.20128e-06
1.18416e-06
1.16483e-06
1.14338e-06
1.11991e-06
1.09452e-06
1.06733e-06
1.03846e-06
1.00804e-06
9.76201e-07
9.43089e-07
9.08818e-07
8.73544e-07
8.37428e-07
8.00631e-07
7.63316e-07
7.25647e-07
6.87786e-07
6.49886e-07
6.121e-07
5.74559e-07
5.37411e-07
5.00796e-07
4.64852e-07
4.29725e-07
3.95533e-07
3.62384e-07
3.30392e-07
2.99667e-07
2.70297e-07
2.42389e-07
2.16044e-07
1.91367e-07
1.6846e-07
1.47437e-07
1.28423e-07
1.11126e-07
9.5536e-08
8.16309e-08
6.93665e-08
5.86651e-08
4.94006e-08
4.13781e-08
3.3814e-08
2.68165e-08
2.05131e-08
1.50282e-08
1.0454e-08
6.81943e-09
4.08123e-09
2.13166e-09
8.3429e-10
1.23508e-10
2.79144e-12
1.32704e-06
1.3243e-06
1.31883e-06
1.31067e-06
1.29985e-06
1.28644e-06
1.27049e-06
1.25208e-06
1.2313e-06
1.20825e-06
1.18303e-06
1.15577e-06
1.12658e-06
1.0956e-06
1.06299e-06
1.02888e-06
9.9339e-07
9.56686e-07
9.18935e-07
8.80312e-07
8.4099e-07
8.01148e-07
7.6096e-07
7.20605e-07
6.80251e-07
6.40063e-07
6.00178e-07
5.60752e-07
5.21937e-07
4.83878e-07
4.46727e-07
4.10609e-07
3.7564e-07
3.41939e-07
3.09619e-07
2.78773e-07
2.49511e-07
2.21939e-07
1.96165e-07
1.72295e-07
1.50439e-07
1.30726e-07
1.12825e-07
9.67322e-08
8.24278e-08
6.98645e-08
5.89549e-08
4.95533e-08
4.14364e-08
3.37527e-08
2.66373e-08
2.02425e-08
1.47077e-08
1.01279e-08
6.52958e-09
3.86132e-09
2.00235e-09
7.95675e-10
1.27946e-10
3.09214e-12
1.40368e-06
1.40073e-06
1.39485e-06
1.38608e-06
1.37446e-06
1.36005e-06
1.34293e-06
1.32316e-06
1.30086e-06
1.27613e-06
1.24908e-06
1.21984e-06
1.18856e-06
1.15537e-06
1.12044e-06
1.0839e-06
1.04595e-06
1.0067e-06
9.66367e-07
9.25124e-07
8.83167e-07
8.40688e-07
7.97876e-07
7.54921e-07
7.12009e-07
6.69318e-07
6.26992e-07
5.85196e-07
5.44091e-07
5.03831e-07
4.64575e-07
4.26455e-07
3.89591e-07
3.54109e-07
3.20125e-07
2.87738e-07
2.57063e-07
2.28213e-07
2.01301e-07
1.7644e-07
1.53732e-07
1.33262e-07
1.14704e-07
9.8071e-08
8.33464e-08
7.048e-08
5.93719e-08
4.98439e-08
4.1612e-08
3.37765e-08
2.65101e-08
1.99928e-08
1.43819e-08
9.78238e-09
6.22058e-09
3.62921e-09
1.86399e-09
7.45192e-10
1.30061e-10
3.3965e-12
1.48401e-06
1.48084e-06
1.47453e-06
1.46512e-06
1.45265e-06
1.43719e-06
1.41881e-06
1.39762e-06
1.37371e-06
1.34721e-06
1.31823e-06
1.28692e-06
1.25343e-06
1.21791e-06
1.18054e-06
1.14146e-06
1.10087e-06
1.05895e-06
1.01588e-06
9.71886e-07
9.27164e-07
8.81922e-07
8.36364e-07
7.90692e-07
7.45105e-07
6.99799e-07
6.54924e-07
6.10656e-07
5.67163e-07
5.24609e-07
4.83162e-07
4.42958e-07
4.04125e-07
3.66795e-07
3.31071e-07
2.97076e-07
2.64929e-07
2.34752e-07
2.06667e-07
1.80812e-07
1.57336e-07
1.35957e-07
1.1667e-07
9.94598e-08
8.42996e-08
7.1136e-08
5.98654e-08
5.02754e-08
4.18609e-08
3.38035e-08
2.63477e-08
1.97012e-08
1.40275e-08
9.42472e-09
5.90602e-09
3.38989e-09
1.71696e-09
6.89569e-10
1.32451e-10
3.74304e-12
1.56832e-06
1.56493e-06
1.55816e-06
1.54806e-06
1.53468e-06
1.51811e-06
1.49841e-06
1.4757e-06
1.45009e-06
1.42171e-06
1.39068e-06
1.35718e-06
1.32135e-06
1.28339e-06
1.24339e-06
1.20159e-06
1.1582e-06
1.11344e-06
1.0675e-06
1.0206e-06
9.72966e-07
9.24818e-07
8.76374e-07
8.27851e-07
7.79461e-07
7.31411e-07
6.83865e-07
6.37009e-07
5.9102e-07
5.46069e-07
5.02332e-07
4.59953e-07
4.19063e-07
3.79799e-07
3.42269e-07
3.06602e-07
2.72924e-07
2.41358e-07
2.12033e-07
1.8509e-07
1.60687e-07
1.38498e-07
1.18524e-07
1.00757e-07
8.51754e-08
7.17384e-08
6.03879e-08
5.10594e-08
4.21438e-08
3.37661e-08
2.60981e-08
1.93213e-08
1.35903e-08
8.99724e-09
5.54171e-09
3.12156e-09
1.55408e-09
6.20885e-10
1.26446e-10
3.91266e-12
1.65696e-06
1.65332e-06
1.64606e-06
1.63522e-06
1.62089e-06
1.60312e-06
1.58201e-06
1.55769e-06
1.53026e-06
1.49987e-06
1.46667e-06
1.43082e-06
1.3925e-06
1.35189e-06
1.30912e-06
1.26442e-06
1.21805e-06
1.17026e-06
1.12126e-06
1.07128e-06
1.02056e-06
9.69344e-07
9.17856e-07
8.66329e-07
8.14987e-07
7.64051e-07
7.13698e-07
6.64125e-07
6.15518e-07
5.68057e-07
5.21927e-07
4.77277e-07
4.3425e-07
3.92962e-07
3.53553e-07
3.16154e-07
2.80895e-07
2.47905e-07
2.17313e-07
1.89259e-07
1.63905e-07
1.40888e-07
1.20217e-07
1.0189e-07
8.58805e-08
7.21373e-08
6.05806e-08
5.11237e-08
4.20272e-08
3.34644e-08
2.56497e-08
1.87923e-08
1.30534e-08
8.51305e-09
5.14794e-09
2.83557e-09
1.37791e-09
5.43087e-10
1.16517e-10
3.98132e-12
1.75029e-06
1.74638e-06
1.73859e-06
1.72697e-06
1.71159e-06
1.69254e-06
1.66993e-06
1.64387e-06
1.61449e-06
1.58196e-06
1.54644e-06
1.5081e-06
1.46713e-06
1.42362e-06
1.37784e-06
1.33003e-06
1.28047e-06
1.22943e-06
1.17718e-06
1.12392e-06
1.06993e-06
1.01545e-06
9.60741e-07
9.06034e-07
8.51572e-07
7.97587e-07
7.44274e-07
6.91837e-07
6.40476e-07
5.90379e-07
5.41736e-07
4.94706e-07
4.49432e-07
4.06042e-07
3.64683e-07
3.25494e-07
2.8861e-07
2.54168e-07
2.22303e-07
1.93151e-07
1.66818e-07
1.42954e-07
1.2159e-07
1.02728e-07
8.63397e-08
7.23564e-08
6.06493e-08
5.10392e-08
4.17249e-08
3.29517e-08
2.49848e-08
1.80607e-08
1.2346e-08
7.90004e-09
4.66908e-09
2.50255e-09
1.1798e-09
4.53393e-10
9.92808e-11
3.79575e-12
1.84869e-06
1.84449e-06
1.83613e-06
1.82367e-06
1.80718e-06
1.78675e-06
1.7625e-06
1.73457e-06
1.70311e-06
1.66827e-06
1.63024e-06
1.58924e-06
1.5453e-06
1.49869e-06
1.44967e-06
1.39853e-06
1.34556e-06
1.29104e-06
1.23529e-06
1.17853e-06
1.12104e-06
1.0631e-06
1.00495e-06
9.46868e-07
8.89094e-07
8.31877e-07
7.75426e-07
7.19961e-07
6.65691e-07
6.12819e-07
5.61536e-07
5.12013e-07
4.64376e-07
4.18788e-07
3.75401e-07
3.34359e-07
2.95807e-07
2.59891e-07
2.26774e-07
1.96653e-07
1.6922e-07
1.44481e-07
1.22442e-07
1.03097e-07
8.64174e-08
7.23262e-08
6.06352e-08
5.0757e-08
4.11125e-08
3.20827e-08
2.39809e-08
1.70514e-08
1.14352e-08
7.15318e-09
4.11378e-09
2.13225e-09
9.65244e-10
3.56309e-10
7.76993e-11
3.41726e-12
1.9526e-06
1.94809e-06
1.93911e-06
1.92573e-06
1.90803e-06
1.88611e-06
1.86011e-06
1.83016e-06
1.79642e-06
1.75908e-06
1.71832e-06
1.67435e-06
1.62722e-06
1.57725e-06
1.52474e-06
1.47001e-06
1.41336e-06
1.35511e-06
1.29558e-06
1.23508e-06
1.17386e-06
1.11221e-06
1.0504e-06
9.88711e-07
9.27408e-07
8.6675e-07
8.06963e-07
7.48279e-07
6.90935e-07
6.35133e-07
5.81056e-07
5.28885e-07
4.78775e-07
4.30893e-07
3.85398e-07
3.42441e-07
3.0217e-07
2.64736e-07
2.30303e-07
1.99069e-07
1.7068e-07
1.4516e-07
1.22528e-07
1.02793e-07
8.59442e-08
7.19558e-08
6.08703e-08
5.01426e-08
3.99901e-08
3.06841e-08
2.24956e-08
1.56351e-08
1.02062e-08
6.18271e-09
3.41987e-09
1.68727e-09
7.15091e-10
2.42415e-10
4.76473e-11
2.44968e-12
2.06246e-06
2.05761e-06
2.04796e-06
2.03358e-06
2.01457e-06
1.99104e-06
1.96312e-06
1.93099e-06
1.89481e-06
1.85478e-06
1.8111e-06
1.76378e-06
1.71315e-06
1.65952e-06
1.60322e-06
1.54459e-06
1.48398e-06
1.42171e-06
1.35814e-06
1.2936e-06
1.22835e-06
1.16272e-06
1.09699e-06
1.03145e-06
9.6637e-07
9.02036e-07
8.38691e-07
7.76579e-07
7.15955e-07
6.5703e-07
5.99999e-07
5.45035e-07
4.92326e-07
4.42049e-07
3.94367e-07
3.4944e-07
3.07423e-07
2.68473e-07
2.32749e-07
2.00397e-07
1.71068e-07
1.44813e-07
1.21664e-07
1.01638e-07
8.47249e-08
7.08246e-08
5.94815e-08
4.84073e-08
3.79876e-08
2.85653e-08
2.04287e-08
1.37727e-08
8.6646e-09
5.01889e-09
2.62606e-09
1.20368e-09
4.58941e-10
1.32913e-10
1.9442e-11
1.17487e-12
2.1797e-06
2.17447e-06
2.16408e-06
2.1486e-06
2.12814e-06
2.10282e-06
2.07281e-06
2.03827e-06
1.99941e-06
1.95645e-06
1.90933e-06
1.85836e-06
1.80388e-06
1.74623e-06
1.68579e-06
1.62291e-06
1.55796e-06
1.49131e-06
1.42333e-06
1.35438e-06
1.28477e-06
1.21483e-06
1.14485e-06
1.07514e-06
1.00599e-06
9.37683e-07
8.70497e-07
8.04692e-07
7.40539e-07
6.78264e-07
6.18055e-07
5.60123e-07
5.04665e-07
4.51864e-07
4.01893e-07
3.54922e-07
3.11122e-07
2.70675e-07
2.3379e-07
2.00198e-07
1.69923e-07
1.42988e-07
1.19428e-07
9.92812e-08
8.26008e-08
6.95117e-08
5.72198e-08
4.56028e-08
3.48997e-08
2.54243e-08
1.74553e-08