/*--------------------------------*- C++ -*----------------------------------*\
| =========                 |                                                 |
| \\      /  F ield         | OpenFOAM: The Open Source CFD Toolbox           |
|  \\    /   O peration     | Version:  v1906                                 |
|   \\  /    A nd           | Web:      www.OpenFOAM.com                      |
|    \\/     M anipulation  |                                                 |
\*---------------------------------------------------------------------------*/
FoamFile
{
    version     2.0;
    format      ascii;
    class       volScalarField;
    location    "2.83";
    object      C2H3;
}
// * * * * * * * * * * * * * * * * * * * * * * * * * * * * * * * * * * * * * //

dimensions      [0 0 0 0 0 0 0];


internalField   nonuniform List<scalar> 
26400
(
4.36085e-13
4.35557e-13
4.34498e-13
4.32911e-13
4.308e-13
4.2817e-13
4.25026e-13
4.21377e-13
4.17231e-13
4.12596e-13
4.07484e-13
4.01907e-13
3.95878e-13
3.89411e-13
3.82522e-13
3.75226e-13
3.67541e-13
3.59485e-13
3.51077e-13
3.42335e-13
3.33281e-13
3.23934e-13
3.14314e-13
3.04442e-13
2.94338e-13
2.8402e-13
2.73507e-13
2.62818e-13
2.51967e-13
2.40971e-13
2.29786e-13
2.18387e-13
2.0688e-13
1.95287e-13
1.83632e-13
1.71938e-13
1.6023e-13
1.48536e-13
1.36881e-13
1.25296e-13
1.13823e-13
1.02508e-13
9.14017e-14
8.05589e-14
7.0039e-14
5.99074e-14
5.02367e-14
4.11094e-14
3.26202e-14
2.4879e-14
1.80128e-14
1.21616e-14
7.46265e-15
4.0115e-15
1.79492e-15
6.23885e-16
1.53316e-16
2.28414e-17
1.44565e-18
3.49336e-20
4.56021e-13
4.55468e-13
4.54359e-13
4.52699e-13
4.50492e-13
4.47742e-13
4.44456e-13
4.40641e-13
4.36307e-13
4.31463e-13
4.2612e-13
4.20292e-13
4.13992e-13
4.07236e-13
4.00039e-13
3.92421e-13
3.84398e-13
3.75991e-13
3.67221e-13
3.58108e-13
3.48674e-13
3.38942e-13
3.28933e-13
3.1867e-13
3.08175e-13
2.97469e-13
2.86572e-13
2.75504e-13
2.6428e-13
2.52915e-13
2.41378e-13
2.29568e-13
2.17621e-13
2.05582e-13
1.93475e-13
1.81324e-13
1.6915e-13
1.56983e-13
1.44852e-13
1.32728e-13
1.20711e-13
1.08851e-13
9.7204e-14
8.5827e-14
7.47824e-14
6.41372e-14
5.39647e-14
4.43464e-14
3.53755e-14
2.71601e-14
1.98274e-14
1.35216e-14
8.39318e-15
4.56508e-15
2.06165e-15
7.1867e-16
1.75652e-16
2.59191e-17
1.64036e-18
3.99798e-20
4.81248e-13
4.8066e-13
4.79486e-13
4.77728e-13
4.7539e-13
4.72478e-13
4.68998e-13
4.64958e-13
4.60368e-13
4.55238e-13
4.49581e-13
4.43411e-13
4.36742e-13
4.29591e-13
4.21977e-13
4.13918e-13
4.05436e-13
3.96551e-13
3.87288e-13
3.7767e-13
3.67721e-13
3.57467e-13
3.46932e-13
3.36142e-13
3.25121e-13
3.13896e-13
3.02487e-13
2.90917e-13
2.79206e-13
2.67371e-13
2.55391e-13
2.43085e-13
2.30571e-13
2.17951e-13
2.05268e-13
1.92545e-13
1.79761e-13
1.66987e-13
1.54256e-13
1.4144e-13
1.28727e-13
1.16177e-13
1.03851e-13
9.18121e-14
8.01263e-14
6.88628e-14
5.80956e-14
4.79058e-14
3.83852e-14
2.96399e-14
2.17956e-14
1.49996e-14
9.41361e-15
5.18334e-15
2.36896e-15
8.32216e-16
2.03196e-16
2.97708e-17
1.87733e-18
4.58812e-20
5.08909e-13
5.08283e-13
5.07035e-13
5.05166e-13
5.02682e-13
4.99587e-13
4.95889e-13
4.91595e-13
4.86716e-13
4.81263e-13
4.75249e-13
4.68689e-13
4.61599e-13
4.53999e-13
4.45908e-13
4.37347e-13
4.28339e-13
4.1891e-13
4.09084e-13
3.98889e-13
3.88353e-13
3.77503e-13
3.66369e-13
3.54981e-13
3.43367e-13
3.31555e-13
3.19573e-13
3.07447e-13
2.95201e-13
2.82854e-13
2.70404e-13
2.57588e-13
2.44507e-13
2.31257e-13
2.17954e-13
2.04633e-13
1.91182e-13
1.77744e-13
1.64371e-13
1.50842e-13
1.3734e-13
1.24022e-13
1.10954e-13
9.82002e-14
8.58307e-14
7.3915e-14
6.25271e-14
5.17464e-14
4.1661e-14
3.2373e-14
2.40033e-14
1.66968e-14
1.06206e-14
5.94099e-15
2.75771e-15
9.78383e-16
2.38583e-16
3.44509e-17
2.15544e-18
5.30438e-20
5.3852e-13
5.37852e-13
5.36525e-13
5.34539e-13
5.31898e-13
5.28607e-13
5.24673e-13
5.20104e-13
5.14911e-13
5.09105e-13
5.02701e-13
4.95714e-13
4.88163e-13
4.80068e-13
4.71451e-13
4.62335e-13
4.52747e-13
4.42714e-13
4.32266e-13
4.21432e-13
4.10245e-13
3.98737e-13
3.86941e-13
3.74891e-13
3.62621e-13
3.50165e-13
3.37554e-13
3.2482e-13
3.11992e-13
2.99096e-13
2.86148e-13
2.72805e-13
2.59153e-13
2.45289e-13
2.31322e-13
2.17375e-13
2.03249e-13
1.89081e-13
1.75013e-13
1.60728e-13
1.46401e-13
1.32255e-13
1.1839e-13
1.04878e-13
9.17879e-14
7.91905e-14
6.71582e-14
5.57679e-14
4.51037e-14
3.52626e-14
2.63599e-14
1.85365e-14
1.19613e-14
6.81566e-15
3.23165e-15
1.16491e-15
2.84182e-16
4.05549e-17
2.51692e-18
6.22046e-20
5.70076e-13
5.69367e-13
5.67958e-13
5.6585e-13
5.63045e-13
5.59548e-13
5.55365e-13
5.50504e-13
5.44974e-13
5.38789e-13
5.31962e-13
5.24512e-13
5.16457e-13
5.07821e-13
4.98626e-13
4.88901e-13
4.78674e-13
4.67976e-13
4.5684e-13
4.45301e-13
4.33395e-13
4.21159e-13
4.08632e-13
3.95851e-13
3.82858e-13
3.69689e-13
3.56385e-13
3.42982e-13
3.29517e-13
3.16021e-13
3.02535e-13
2.88632e-13
2.74389e-13
2.59904e-13
2.45288e-13
2.30669e-13
2.15844e-13
2.00944e-13
1.86128e-13
1.71053e-13
1.55894e-13
1.4086e-13
1.26156e-13
1.11851e-13
9.80184e-14
8.47255e-14
7.20419e-14
6.004e-14
4.87982e-14
3.84063e-14
2.89716e-14
2.06276e-14
1.35393e-14
7.89625e-15
3.86198e-15
1.42237e-15
3.47454e-16
4.86863e-17
2.98192e-18
7.38086e-20
6.03673e-13
6.02922e-13
6.01435e-13
5.99207e-13
5.96238e-13
5.92531e-13
5.8809e-13
5.82922e-13
5.77036e-13
5.70444e-13
5.63162e-13
5.55208e-13
5.46604e-13
5.37375e-13
5.27547e-13
5.17151e-13
5.06219e-13
4.94787e-13
4.82891e-13
4.70573e-13
4.57871e-13
4.4483e-13
4.31492e-13
4.17903e-13
4.04107e-13
3.90151e-13
3.76079e-13
3.61935e-13
3.47763e-13
3.33603e-13
3.19522e-13
3.05011e-13
2.90135e-13
2.74997e-13
2.59712e-13
2.44407e-13
2.28881e-13
2.13251e-13
1.97641e-13
1.81737e-13
1.65718e-13
1.49789e-13
1.342e-13
1.19073e-13
1.04476e-13
9.04739e-14
7.71306e-14
6.45117e-14
5.2689e-14
4.17459e-14
3.1784e-14
2.29284e-14
1.53377e-14
9.20505e-15
4.72514e-15
1.7784e-15
4.33379e-16
5.89738e-17
3.54873e-18
8.78395e-20
6.39402e-13
6.38617e-13
6.37064e-13
6.34742e-13
6.31621e-13
6.27708e-13
6.23008e-13
6.17526e-13
6.11267e-13
6.04242e-13
5.96469e-13
5.87967e-13
5.78762e-13
5.68881e-13
5.58356e-13
5.47219e-13
5.35508e-13
5.23263e-13
5.10526e-13
4.97343e-13
4.8376e-13
4.69825e-13
4.55589e-13
4.41102e-13
4.26416e-13
4.11584e-13
3.96659e-13
3.81691e-13
3.66732e-13
3.51832e-13
3.37087e-13
3.21907e-13
3.06344e-13
2.9051e-13
2.74529e-13
2.58541e-13
2.42365e-13
2.26144e-13
2.09553e-13
1.92724e-13
1.75811e-13
1.58993e-13
1.42495e-13
1.26533e-13
1.1117e-13
9.64643e-14
8.24711e-14
6.92465e-14
5.68507e-14
4.53636e-14
3.4884e-14
2.55321e-14
1.74586e-14
1.08519e-14
5.95937e-15
2.2759e-15
5.50629e-16
7.21568e-17
4.24601e-18
1.04968e-19
6.77319e-13
6.76493e-13
6.74863e-13
6.72432e-13
6.69207e-13
6.652e-13
6.60301e-13
6.5453e-13
6.47891e-13
6.40402e-13
6.32086e-13
6.22981e-13
6.13116e-13
6.02517e-13
5.91219e-13
5.79261e-13
5.66686e-13
5.53539e-13
5.39868e-13
5.25725e-13
5.11162e-13
4.96235e-13
4.81e-13
4.65516e-13
4.49842e-13
4.34036e-13
4.18161e-13
4.02274e-13
3.86438e-13
3.70709e-13
3.55216e-13
3.39284e-13
3.22955e-13
3.06348e-13
2.8959e-13
2.7282e-13
2.55856e-13
2.38814e-13
2.2139e-13
2.03732e-13
1.85992e-13
1.68343e-13
1.50993e-13
1.342e-13
1.18078e-13
1.02682e-13
8.80591e-14
7.425e-14
6.12769e-14
4.92439e-14
3.82601e-14
2.84472e-14
1.99427e-14
1.28964e-14
7.48153e-15
2.90457e-15
6.96875e-16
8.68843e-17
4.93772e-18
1.20309e-19
7.1759e-13
7.16703e-13
7.14955e-13
7.12349e-13
7.08894e-13
7.04604e-13
6.99495e-13
6.93591e-13
6.86709e-13
6.78879e-13
6.70112e-13
6.60432e-13
6.49874e-13
6.38484e-13
6.26325e-13
6.13454e-13
5.99918e-13
5.85766e-13
5.71056e-13
5.55845e-13
5.40193e-13
5.24163e-13
5.07819e-13
4.91226e-13
4.74452e-13
4.57564e-13
4.4063e-13
4.23719e-13
4.069e-13
3.90242e-13
3.73906e-13
3.57137e-13
3.39966e-13
3.22527e-13
3.04963e-13
2.8742e-13
2.69774e-13
2.51722e-13
2.33378e-13
2.14859e-13
1.96299e-13
1.77849e-13
1.59695e-13
1.42074e-13
1.25206e-13
1.09147e-13
9.39489e-14
7.96688e-14
6.60392e-14
5.34401e-14
4.1974e-14
3.17659e-14
2.29619e-14
1.56677e-14
9.42703e-15
3.6979e-15
8.78665e-16
1.03228e-16
5.63099e-18
1.34312e-19
7.60534e-13
7.59573e-13
7.57684e-13
7.54868e-13
7.51137e-13
7.46504e-13
7.40989e-13
7.34611e-13
7.27394e-13
7.19367e-13
7.1027e-13
7.0013e-13
6.88982e-13
6.76872e-13
6.63855e-13
6.50001e-13
6.3539e-13
6.20117e-13
6.04248e-13
5.87847e-13
5.70984e-13
5.53727e-13
5.36151e-13
5.18328e-13
5.00333e-13
4.82242e-13
4.64131e-13
4.46076e-13
4.28156e-13
4.10448e-13
3.9315e-13
3.75422e-13
3.57291e-13
3.38914e-13
3.20468e-13
3.01858e-13
2.83287e-13
2.6439e-13
2.4525e-13
2.25964e-13
2.06651e-13
1.87453e-13
1.68541e-13
1.50133e-13
1.32514e-13
1.1578e-13
9.99881e-14
8.51968e-14
7.09782e-14
5.78647e-14
4.5971e-14
3.54612e-14
2.66138e-14
2.00412e-14
1.1852e-14
4.6297e-15
1.08383e-15
1.1854e-16
6.11273e-18
1.40016e-19
8.06457e-13
8.05414e-13
8.03364e-13
8.00313e-13
7.96273e-13
7.91262e-13
7.85305e-13
7.78429e-13
7.70666e-13
7.62052e-13
7.52627e-13
7.42041e-13
7.30328e-13
7.17532e-13
7.03708e-13
6.88921e-13
6.7325e-13
6.56784e-13
6.39627e-13
6.21899e-13
6.03687e-13
5.85069e-13
5.66126e-13
5.4694e-13
5.27594e-13
5.08171e-13
4.88755e-13
4.69431e-13
4.50283e-13
4.31396e-13
4.12993e-13
3.94146e-13
3.74863e-13
3.55298e-13
3.35613e-13
3.15686e-13
2.96537e-13
2.76992e-13
2.57164e-13
2.37173e-13
2.17145e-13
1.97225e-13
1.77585e-13
1.58433e-13
1.4004e-13
1.22623e-13
1.06241e-13
9.09538e-14
7.61776e-14
6.2569e-14
5.02554e-14
3.93893e-14
3.01859e-14
2.31156e-14
1.40207e-14
5.56836e-15
1.2983e-15
1.32186e-16
6.46487e-18
1.40099e-19
8.55667e-13
8.54528e-13
8.52293e-13
8.48967e-13
8.44565e-13
8.39109e-13
8.32627e-13
8.25151e-13
8.16721e-13
8.07378e-13
7.97172e-13
7.86155e-13
7.73889e-13
7.60418e-13
7.45797e-13
7.30092e-13
7.13382e-13
6.95757e-13
6.77318e-13
6.58181e-13
6.38476e-13
6.1835e-13
5.97895e-13
5.77204e-13
5.56368e-13
5.35479e-13
5.14628e-13
4.93907e-13
4.73407e-13
4.5322e-13
4.33601e-13
4.13537e-13
3.93026e-13
3.72248e-13
3.51402e-13
3.30446e-13
3.10436e-13
2.90073e-13
2.69453e-13
2.48685e-13
2.27892e-13
2.07217e-13
1.86826e-13
1.6692e-13
1.47749e-13
1.29644e-13
1.12677e-13
9.69247e-14
8.16818e-14
6.7585e-14
5.49529e-14
4.39527e-14
3.46982e-14
2.68099e-14
1.65469e-14
6.68562e-15
1.55105e-15
1.46041e-16
6.78541e-18
1.37521e-19
9.08523e-13
9.07276e-13
9.04831e-13
9.01193e-13
8.96379e-13
8.90413e-13
8.83327e-13
8.75157e-13
8.65948e-13
8.55748e-13
8.44613e-13
8.32604e-13
8.19788e-13
8.05638e-13
7.90211e-13
7.73575e-13
7.55812e-13
7.37014e-13
7.17288e-13
6.9675e-13
6.75532e-13
6.53778e-13
6.31648e-13
6.09296e-13
5.86821e-13
5.64322e-13
5.41898e-13
5.19646e-13
4.9766e-13
4.76037e-13
4.55055e-13
4.33605e-13
4.11655e-13
3.89366e-13
3.66896e-13
3.45275e-13
3.2458e-13
3.0347e-13
2.82069e-13
2.60505e-13
2.38917e-13
2.17455e-13
1.96291e-13
1.75624e-13
1.55699e-13
1.36834e-13
1.19231e-13
1.0298e-13
8.7265e-14
7.27129e-14
5.98941e-14
4.92104e-14
4.1469e-14
3.1179e-14
1.93522e-14
8.02936e-15
1.85537e-15
1.70283e-16
7.41421e-18
1.38705e-19
9.65416e-13
9.6405e-13
9.61375e-13
9.57393e-13
9.52124e-13
9.45594e-13
9.37836e-13
9.28891e-13
9.18805e-13
9.07633e-13
8.95435e-13
8.8228e-13
8.68242e-13
8.53404e-13
8.3715e-13
8.19553e-13
8.00698e-13
7.80684e-13
7.59625e-13
7.37644e-13
7.14881e-13
6.91486e-13
6.67619e-13
6.43455e-13
6.19181e-13
5.94923e-13
5.70787e-13
5.46875e-13
5.23286e-13
5.00122e-13
4.77695e-13
4.54809e-13
4.31435e-13
4.07773e-13
3.84053e-13
3.61349e-13
3.39694e-13
3.17644e-13
2.95317e-13
2.72844e-13
2.50366e-13
2.28037e-13
2.0603e-13
1.84544e-13
1.63816e-13
1.44144e-13
1.25851e-13
1.09036e-13
9.2775e-14
7.76447e-14
6.43536e-14
5.3288e-14
4.52367e-14
3.45103e-14
2.20542e-14
9.77064e-15
2.25923e-15
2.05689e-16
8.46563e-18
1.47868e-19
1.02676e-12
1.02527e-12
1.02234e-12
1.01799e-12
1.01223e-12
1.00509e-12
9.96607e-13
9.86819e-13
9.75777e-13
9.63537e-13
9.50164e-13
9.3573e-13
9.20316e-13
9.04012e-13
8.86914e-13
8.6832e-13
8.48321e-13
8.27024e-13
8.04552e-13
7.81045e-13
7.56657e-13
7.31554e-13
7.05911e-13
6.79907e-13
6.53727e-13
6.27562e-13
6.01578e-13
5.75873e-13
5.50543e-13
5.25684e-13
5.01631e-13
4.77082e-13
4.51964e-13
4.26444e-13
4.01834e-13
3.7821e-13
3.55643e-13
3.32633e-13
3.09326e-13
2.8587e-13
2.62421e-13
2.39145e-13
2.1622e-13
1.93848e-13
1.72262e-13
1.5175e-13
1.32683e-13
1.15242e-13
9.84216e-14
8.27335e-14
6.89761e-14
5.75242e-14
4.91298e-14
3.80569e-14
2.51201e-14
1.19598e-14
2.85755e-15
2.66222e-16
1.08513e-17
1.82821e-19
1.09301e-12
1.09138e-12
1.0882e-12
1.08346e-12
1.07719e-12
1.06941e-12
1.06017e-12
1.04949e-12
1.03743e-12
1.02405e-12
1.00942e-12
9.93599e-13
9.76677e-13
9.58746e-13
9.39907e-13
9.20276e-13
8.99062e-13
8.76381e-13
8.52372e-13
8.27197e-13
8.01037e-13
7.74094e-13
7.46597e-13
7.18739e-13
6.90693e-13
6.62629e-13
6.34719e-13
6.07146e-13
5.79993e-13
5.53356e-13
5.27619e-13
5.01402e-13
4.74653e-13
4.47628e-13
4.2168e-13
3.96834e-13
3.73129e-13
3.48982e-13
3.24543e-13
2.99969e-13
2.75425e-13
2.51085e-13
2.27134e-13
2.03774e-13
1.81236e-13
1.59797e-13
1.39815e-13
1.21635e-13
1.04278e-13
8.81227e-14
7.38413e-14
6.19661e-14
5.31904e-14
4.18755e-14
2.86764e-14
1.48291e-14
3.86268e-15
3.89872e-16
1.74491e-17
2.99655e-19
1.16462e-12
1.16286e-12
1.15941e-12
1.15429e-12
1.1475e-12
1.13907e-12
1.12905e-12
1.11747e-12
1.10439e-12
1.08985e-12
1.07392e-12
1.05667e-12
1.03817e-12
1.01851e-12
9.97796e-13
9.76129e-13
9.53638e-13
9.29442e-13
9.03686e-13
8.76553e-13
8.48261e-13
8.18969e-13
7.89465e-13
7.59801e-13
7.30051e-13
7.00311e-13
6.70687e-13
6.41292e-13
6.12241e-13
5.83653e-13
5.55956e-13
5.27665e-13
4.98663e-13
4.70564e-13
4.43454e-13
4.17413e-13
3.92515e-13
3.6713e-13
3.41438e-13
3.15618e-13
2.89849e-13
2.64313e-13
2.39202e-13
2.14716e-13
1.91074e-13
1.6852e-13
1.47342e-13
1.27902e-13
1.10279e-13
9.36885e-14
7.88119e-14
6.63916e-14
5.71171e-14
4.56178e-14
3.24371e-14
1.83097e-14
5.51453e-15
6.59889e-16
4.05774e-17
8.1092e-19
1.24204e-12
1.24015e-12
1.23644e-12
1.23093e-12
1.22363e-12
1.21457e-12
1.20379e-12
1.19133e-12
1.17724e-12
1.16158e-12
1.14439e-12
1.12575e-12
1.10572e-12
1.08436e-12
1.06177e-12
1.03802e-12
1.01322e-12
9.8748e-13
9.59813e-13
9.30373e-13
9.00278e-13
8.69596e-13
8.38439e-13
8.06929e-13
7.75194e-13
7.43369e-13
7.11595e-13
6.80012e-13
6.48765e-13
6.18005e-13
5.88243e-13
5.57955e-13
5.27088e-13
4.9729e-13
4.68594e-13
4.41048e-13
4.14712e-13
3.87897e-13
3.60788e-13
3.33565e-13
3.0641e-13
2.79512e-13
2.53069e-13
2.2729e-13
2.02403e-13
1.78658e-13
1.56337e-13
1.35775e-13
1.17175e-13
9.95557e-14
8.36388e-14
7.02884e-14
6.01235e-14
4.82859e-14
3.52821e-14
2.15014e-14
8.05192e-15
1.33611e-15
1.47146e-16
4.01389e-18
1.32573e-12
1.32369e-12
1.31973e-12
1.31382e-12
1.30601e-12
1.29633e-12
1.28481e-12
1.27151e-12
1.25648e-12
1.23977e-12
1.22143e-12
1.20153e-12
1.18013e-12
1.15728e-12
1.13303e-12
1.10745e-12
1.08057e-12
1.05246e-12
1.02315e-12
9.92494e-13
9.60717e-13
9.28051e-13
8.94736e-13
8.60933e-13
8.2681e-13
7.9253e-13
7.58251e-13
7.24128e-13
6.90311e-13
6.56942e-13
6.24558e-13
5.91476e-13
5.59202e-13
5.27852e-13
4.97533e-13
4.68352e-13
4.4043e-13
4.12126e-13
3.83559e-13
3.54875e-13
3.26246e-13
2.97858e-13
2.69917e-13
2.42644e-13
2.16282e-13
1.91099e-13
1.67401e-13
1.45557e-13
1.26034e-13
1.06594e-13
8.91304e-14
7.42751e-14
6.25143e-14
5.01666e-14
3.74625e-14
2.46083e-14
1.22919e-14
3.44838e-15
7.04328e-16
3.01548e-17
1.41685e-12
1.41467e-12
1.41042e-12
1.4041e-12
1.39576e-12
1.38543e-12
1.37317e-12
1.35904e-12
1.34309e-12
1.3254e-12
1.30603e-12
1.28504e-12
1.26249e-12
1.23846e-12
1.21298e-12
1.18613e-12
1.15795e-12
1.12849e-12
1.09732e-12
1.06464e-12
1.03065e-12
9.95576e-13
9.59665e-13
9.23171e-13
8.86343e-13
8.49355e-13
8.12378e-13
7.7558e-13
7.39133e-13
7.03216e-13
6.68485e-13
6.33212e-13
5.98795e-13
5.65341e-13
5.32909e-13
5.01549e-13
4.713e-13
4.42186e-13
4.12582e-13
3.82688e-13
3.5271e-13
3.22857e-13
2.9335e-13
2.64417e-13
2.36301e-13
2.09262e-13
1.83571e-13
1.59526e-13
1.37466e-13
1.17672e-13
9.85542e-14
8.16685e-14
6.73734e-14
5.55585e-14
4.37168e-14
3.21302e-14
2.10028e-14
1.15637e-14
3.64449e-15
2.06543e-16
1.51559e-12
1.51309e-12
1.50823e-12
1.50101e-12
1.4915e-12
1.47975e-12
1.46584e-12
1.44985e-12
1.43188e-12
1.41201e-12
1.39032e-12
1.3669e-12
1.34183e-12
1.31518e-12
1.287e-12
1.25735e-12
1.22629e-12
1.19306e-12
1.1579e-12
1.12104e-12
1.08273e-12
1.04323e-12
1.00281e-12
9.61752e-13
9.20363e-13
8.78927e-13
8.37624e-13
7.96624e-13
7.56082e-13
7.16139e-13
6.77408e-13
6.39791e-13
6.03074e-13
5.67478e-13
5.33104e-13
5.00036e-13
4.68356e-13
4.36042e-13
4.03346e-13
3.70522e-13
3.37818e-13
3.05487e-13
2.73785e-13
2.42983e-13
2.13371e-13
1.85284e-13
1.59122e-13
1.35348e-13
1.14357e-13
9.39273e-14
7.61788e-14
6.17055e-14
5.05924e-14
3.8946e-14
2.72882e-14
1.62867e-14
6.89882e-15
1.58214e-15
1.37494e-16
3.14355e-18
1.62136e-12
1.61846e-12
1.61282e-12
1.60446e-12
1.59346e-12
1.57992e-12
1.56397e-12
1.54572e-12
1.5253e-12
1.50285e-12
1.47847e-12
1.45228e-12
1.42437e-12
1.39482e-12
1.3637e-12
1.33105e-12
1.29577e-12
1.25813e-12
1.21841e-12
1.17688e-12
1.13382e-12
1.08952e-12
1.0443e-12
9.98451e-13
9.52321e-13
9.06258e-13
8.6056e-13
8.15422e-13
7.71029e-13
7.2755e-13
6.85654e-13
6.45197e-13
6.0596e-13
5.68204e-13
5.32008e-13
4.97418e-13
4.62145e-13
4.26498e-13
3.90779e-13
3.55286e-13
3.20312e-13
2.86153e-13
2.53112e-13
2.21515e-13
1.91716e-13
1.64113e-13
1.39147e-13
1.17266e-13
9.66186e-14
7.76039e-14
6.23205e-14
5.13903e-14
4.03785e-14
2.95513e-14
1.93707e-14
1.04866e-14
4.06837e-15
8.40607e-16
6.46833e-17
1.34194e-18
1.73504e-12
1.73164e-12
1.72502e-12
1.71524e-12
1.70241e-12
1.68667e-12
1.66824e-12
1.64733e-12
1.6241e-12
1.59872e-12
1.57137e-12
1.54219e-12
1.51132e-12
1.47884e-12
1.44481e-12
1.40768e-12
1.36778e-12
1.32542e-12
1.28089e-12
1.23452e-12
1.18659e-12
1.13743e-12
1.08735e-12
1.03669e-12
9.858e-13
9.35068e-13
8.84906e-13
8.35596e-13
7.87356e-13
7.40391e-13
6.95444e-13
6.52287e-13
6.10743e-13
5.7117e-13
5.33617e-13
4.95315e-13
4.56642e-13
4.17952e-13
3.79581e-13
3.41847e-13
3.0506e-13
2.69524e-13
2.35556e-13
2.03506e-13
1.73789e-13
1.4694e-13
1.237e-13
1.02055e-13
8.24087e-14
6.51469e-14
5.18057e-14
4.27649e-14
3.3285e-14
2.38521e-14
1.50512e-14
7.59972e-15
2.82287e-15
5.47742e-16
3.8209e-17
6.95778e-19
1.85433e-12
1.8505e-12
1.84303e-12
1.83199e-12
1.81747e-12
1.79963e-12
1.77868e-12
1.75485e-12
1.72842e-12
1.69968e-12
1.66896e-12
1.6366e-12
1.60271e-12
1.56739e-12
1.52857e-12
1.48664e-12
1.44193e-12
1.39476e-12
1.34544e-12
1.29428e-12
1.24157e-12
1.18763e-12
1.1328e-12
1.07741e-12
1.02184e-12
9.66481e-13
9.11778e-13
8.58202e-13
8.0601e-13
7.55461e-13
7.074e-13
6.61532e-13
6.17805e-13
5.76861e-13
5.3528e-13
4.93412e-13
4.51628e-13
4.10292e-13
3.6975e-13
3.30325e-13
2.92318e-13
2.56017e-13
2.21713e-13
1.89722e-13
1.60415e-13
1.3426e-13
1.11904e-13
9.14592e-14
7.33525e-14
5.79712e-14
4.62387e-14
3.8403e-14
2.98284e-14
2.11544e-14
1.31119e-14
6.48354e-15
2.45338e-15
5.00024e-16
3.53867e-17
6.60441e-19
1.97501e-12
1.97077e-12
1.96254e-12
1.95032e-12
1.93423e-12
1.91444e-12
1.89119e-12
1.86478e-12
1.83558e-12
1.80391e-12
1.77013e-12
1.7346e-12
1.6977e-12
1.6572e-12
1.61345e-12
1.56674e-12
1.51736e-12
1.46558e-12
1.41168e-12
1.35593e-12
1.29865e-12
1.24015e-12
1.18075e-12
1.12081e-12
1.06068e-12
1.00077e-12
9.41534e-13
8.83488e-13
8.2709e-13
7.72645e-13
7.21093e-13
6.71958e-13
6.25135e-13
5.81067e-13
5.36258e-13
4.91356e-13
4.46901e-13
4.03346e-13
3.61074e-13
3.20406e-13
2.81617e-13
2.44954e-13
2.10657e-13
1.78991e-13
1.50285e-13
1.24951e-13
1.03393e-13
8.39959e-14
6.72663e-14
5.35287e-14
4.30717e-14
3.61022e-14
2.79668e-14
1.96782e-14
1.21023e-14
6.00895e-15
2.33331e-15
5.12299e-16
3.81472e-17
7.09241e-19
2.09531e-12
2.09075e-12
2.08185e-12
2.06858e-12
2.05098e-12
2.02917e-12
2.00337e-12
1.97407e-12
1.94222e-12
1.90788e-12
1.87132e-12
1.83301e-12
1.7912e-12
1.74614e-12
1.69806e-12
1.64715e-12
1.59362e-12
1.53766e-12
1.47953e-12
1.41949e-12
1.35787e-12
1.29502e-12
1.23128e-12
1.16701e-12
1.10255e-12
1.03822e-12
9.74458e-13
9.118e-13
8.50916e-13
7.92277e-13
7.37081e-13
6.84857e-13
6.35981e-13
5.86675e-13
5.37565e-13
4.89208e-13
4.42069e-13
3.96537e-13
3.52927e-13
3.11491e-13
2.72429e-13
2.35904e-13
2.02067e-13
1.7112e-13
1.43428e-13
1.1961e-13
9.82156e-14
7.97108e-14
6.44422e-14
5.24522e-14
4.27789e-14
3.56321e-14
2.72598e-14
1.90143e-14
1.1754e-14
6.04692e-15
2.51399e-15
6.23882e-16
5.25863e-17
1.12388e-18
2.21397e-12
2.20936e-12
2.20014e-12
2.18625e-12
2.16757e-12
2.14385e-12
2.11468e-12
2.08159e-12
2.04801e-12
2.01153e-12
1.97206e-12
1.92955e-12
1.88398e-12
1.83538e-12
1.78383e-12
1.72943e-12
1.6723e-12
1.61258e-12
1.55043e-12
1.48616e-12
1.42022e-12
1.35305e-12
1.28511e-12
1.21681e-12
1.14858e-12
1.08002e-12
1.0117e-12
9.44201e-13
8.78185e-13
8.14246e-13
7.53744e-13
6.9638e-13
6.42691e-13
5.89036e-13
5.36332e-13
4.85189e-13
4.36007e-13
3.89104e-13
3.4474e-13
3.03092e-13
2.64275e-13
2.28338e-13
1.95266e-13
1.64991e-13
1.37823e-13
1.14448e-13
9.38524e-14
7.66266e-14
6.33291e-14
5.45484e-14
4.51082e-14
3.55496e-14
2.64404e-14
1.83373e-14
1.16414e-14
6.5343e-15
2.99674e-15
8.96483e-16
9.96997e-17
3.23667e-18
2.33177e-12
2.3271e-12
2.31806e-12
2.3046e-12
2.28678e-12
2.26464e-12
2.23828e-12
2.2079e-12
2.17362e-12
2.13555e-12
2.09379e-12
2.04845e-12
1.99966e-12
1.94754e-12
1.89222e-12
1.83383e-12
1.77248e-12
1.70821e-12
1.64055e-12
1.57025e-12
1.49812e-12
1.42479e-12
1.3508e-12
1.27667e-12
1.20286e-12
1.12873e-12
1.05483e-12
9.81688e-13
9.09853e-13
8.3986e-13
7.72762e-13
7.08859e-13
6.4748e-13
5.88689e-13
5.32588e-13
4.79293e-13
4.28666e-13
3.80903e-13
3.36309e-13
2.94976e-13
2.56965e-13
2.22285e-13
1.90817e-13
1.61337e-13
1.34485e-13
1.10885e-13
9.10288e-14
7.49461e-14
6.26763e-14
5.43949e-14
4.49458e-14
3.51516e-14
2.5834e-14
1.76654e-14
1.10614e-14
6.14992e-15
2.82363e-15
8.67149e-16
1.00532e-16
3.51035e-18
2.4802e-12
2.47527e-12
2.46572e-12
2.45153e-12
2.43273e-12
2.40938e-12
2.38153e-12
2.34927e-12
2.31272e-12
2.27197e-12
2.22717e-12
2.17846e-12
2.12602e-12
2.07003e-12
2.01068e-12
1.94816e-12
1.88268e-12
1.81268e-12
1.73883e-12
1.66191e-12
1.5828e-12
1.50246e-12
1.42168e-12
1.34107e-12
1.26122e-12
1.18135e-12
1.10191e-12
1.02342e-12
9.4642e-13
8.71454e-13
7.99803e-13
7.31755e-13
6.66603e-13
6.04488e-13
5.45489e-13
4.89613e-13
4.36633e-13
3.86976e-13
3.40831e-13
2.98315e-13
2.59551e-13
2.24693e-13
1.91826e-13
1.61442e-13
1.34108e-13
1.10471e-13
9.08852e-14
7.53662e-14
6.37741e-14
5.5298e-14
4.52904e-14
3.49888e-14
2.53558e-14
1.70741e-14
1.05202e-14
5.76402e-15
2.63187e-15
8.32736e-16
1.01763e-16
3.72766e-18
2.6416e-12
2.6363e-12
2.62607e-12
2.61087e-12
2.59072e-12
2.56566e-12
2.53577e-12
2.50111e-12
2.46178e-12
2.41791e-12
2.36963e-12
2.31714e-12
2.26063e-12
2.20034e-12
2.1365e-12
2.06928e-12
1.99871e-12
1.92281e-12
1.84247e-12
1.75864e-12
1.67229e-12
1.58446e-12
1.49624e-12
1.40847e-12
1.32171e-12
1.23643e-12
1.15159e-12
1.06781e-12
9.85702e-13
9.05857e-13
8.29819e-13
7.57747e-13
6.89017e-13
6.23781e-13
5.62149e-13
5.03376e-13
4.47811e-13
3.95859e-13
3.47755e-13
3.0358e-13
2.63415e-13
2.27374e-13
1.93488e-13
1.62326e-13
1.34534e-13
1.10858e-13
9.15923e-14
7.70161e-14
6.77331e-14
5.71654e-14
4.59707e-14
3.4962e-14
2.49346e-14
1.65067e-14
9.99511e-15
5.3947e-15
2.44814e-15
7.8654e-16
9.96008e-17
3.89181e-18
2.81337e-12
2.80769e-12
2.79673e-12
2.78043e-12
2.75882e-12
2.73194e-12
2.69984e-12
2.66259e-12
2.62027e-12
2.57302e-12
2.52097e-12
2.46433e-12
2.40336e-12
2.33841e-12
2.26991e-12
2.19845e-12
2.12108e-12
2.0383e-12
1.95087e-12
1.85973e-12
1.76588e-12
1.67045e-12
1.57456e-12
1.47945e-12
1.38593e-12
1.29454e-12
1.20384e-12
1.11449e-12
1.02711e-12
9.42324e-13
8.6175e-13
7.85526e-13
7.13089e-13
6.44551e-13
5.79971e-13
5.18407e-13
4.60252e-13
4.05945e-13
3.55819e-13
3.09924e-13
2.68282e-13
2.30931e-13
1.95906e-13
1.63853e-13
1.35481e-13
1.11574e-13
9.22462e-14
7.77326e-14
6.8613e-14
5.77864e-14
4.61693e-14
3.47659e-14
2.44809e-14
1.59607e-14
9.49934e-15
5.0401e-15
2.26402e-15
7.41765e-16
1.01174e-16
4.1879e-18
2.99567e-12
2.98959e-12
2.97785e-12
2.96041e-12
2.93728e-12
2.9085e-12
2.8741e-12
2.83414e-12
2.78869e-12
2.73785e-12
2.68174e-12
2.62055e-12
2.55448e-12
2.48386e-12
2.40905e-12
2.32962e-12
2.2469e-12
2.15762e-12
2.06304e-12
1.96436e-12
1.86279e-12
1.75956e-12
1.65591e-12
1.55311e-12
1.45247e-12
1.3547e-12
1.25792e-12
1.16281e-12
1.07005e-12
9.80243e-13
8.95108e-13
8.14759e-13
7.38581e-13
6.66717e-13
5.99009e-13
5.34467e-13
4.73571e-13
4.16808e-13
3.64627e-13
3.17056e-13
2.74014e-13
2.35187e-13
1.98876e-13
1.65878e-13
1.36993e-13
1.12885e-13
9.36118e-14
7.9249e-14
7.00873e-14
5.87869e-14
4.65742e-14
3.46557e-14
2.40368e-14
1.53904e-14
8.98149e-15
4.67665e-15
2.07401e-15
6.84995e-16
1.01009e-16
4.47885e-18
3.18926e-12
3.18275e-12
3.17021e-12
3.15158e-12
3.12687e-12
3.0961e-12
3.05932e-12
3.01655e-12
2.96786e-12
2.91331e-12
2.853e-12
2.78708e-12
2.71575e-12
2.63924e-12
2.55775e-12
2.47046e-12
2.37944e-12
2.28203e-12
2.17926e-12
2.07235e-12
1.96258e-12
1.85125e-12
1.73965e-12
1.6291e-12
1.52095e-12
1.4165e-12
1.3134e-12
1.21238e-12
1.11412e-12
1.01923e-12
9.29534e-13
8.45132e-13
7.65341e-13
6.90585e-13
6.19089e-13
5.51224e-13
4.87405e-13
4.28095e-13
3.73844e-13
3.24783e-13
2.81059e-13
2.3998e-13
2.02099e-13
1.68084e-13
1.38736e-13
1.14591e-13
9.57329e-14
8.2061e-14
7.23579e-14
6.0097e-14
4.70185e-14
3.44927e-14
2.35472e-14
1.48092e-14
8.4685e-15
4.3152e-15
1.88119e-15
6.2667e-16
1.0184e-16
4.82236e-18
3.39506e-12
3.3881e-12
3.37471e-12
3.35482e-12
3.32844e-12
3.2956e-12
3.25633e-12
3.21064e-12
3.15857e-12
3.10017e-12
3.0355e-12
2.96469e-12
2.88798e-12
2.80583e-12
2.71503e-12
2.61734e-12
2.51479e-12
2.40953e-12
2.29831e-12
2.18279e-12
2.06448e-12
1.94477e-12
1.82504e-12
1.70666e-12
1.591e-12
1.47952e-12
1.36986e-12
1.26276e-12
1.15888e-12
1.05884e-12
9.64527e-13
8.76002e-13
7.92377e-13
7.1397e-13
6.38963e-13
5.67868e-13
5.01144e-13
4.39256e-13
3.82737e-13
3.31768e-13
2.86438e-13
2.43934e-13
2.04896e-13
1.70079e-13
1.40406e-13
1.16399e-13
9.85538e-14
8.79981e-14
7.53132e-14
6.13617e-14
4.72568e-14
3.41234e-14
2.28856e-14
1.41017e-14
7.88004e-15
3.91994e-15
1.67465e-15
5.56666e-16
9.68244e-17
4.97789e-18
3.61412e-12
3.60668e-12
3.59238e-12
3.57115e-12
3.543e-12
3.50796e-12
3.46605e-12
3.41728e-12
3.36168e-12
3.29925e-12
3.22997e-12
3.1538e-12
3.07067e-12
2.98059e-12
2.87992e-12
2.77133e-12
2.6575e-12
2.54132e-12
2.42013e-12
2.29519e-12
2.16785e-12
2.0395e-12
1.91147e-12
1.78512e-12
1.66185e-12
1.54316e-12
1.42678e-12
1.31346e-12
1.20389e-12
1.09869e-12
9.99813e-13
9.07391e-13
8.20632e-13
7.37615e-13
6.58689e-13
5.84219e-13
5.14577e-13
4.50166e-13
3.91458e-13
3.38645e-13
2.91675e-13
2.4773e-13
2.07534e-13
1.71916e-13
1.41857e-13
1.17665e-13
9.97727e-14
8.932e-14
7.61994e-14
6.16098e-14
4.69192e-14
3.34036e-14
2.20292e-14
1.33094e-14
7.26478e-15
3.51571e-15
1.46102e-15
4.811e-16
8.96633e-17
5.04132e-18
3.84754e-12
3.83959e-12
3.82432e-12
3.80164e-12
3.77158e-12
3.73418e-12
3.68946e-12
3.63744e-12
3.57814e-12
3.51159e-12
3.43779e-12
3.35668e-12
3.2678e-12
3.16532e-12
3.05188e-12
2.93016e-12
2.80288e-12
2.67275e-12
2.54239e-12
2.40815e-12
2.27176e-12
2.13469e-12
1.99831e-12
1.86395e-12
1.733e-12
1.60693e-12
1.48368e-12
1.36399e-12
1.24859e-12
1.13817e-12
1.03461e-12
9.37889e-13
8.46858e-13
7.59792e-13
6.77216e-13
5.99543e-13
5.27143e-13
4.60399e-13
3.99749e-13
3.45364e-13
2.96646e-13
2.51163e-13
2.09826e-13
1.73555e-13
1.43322e-13
1.19223e-13
1.01487e-13
9.08788e-14
7.70348e-14
6.15963e-14
4.62203e-14
3.23184e-14
2.08702e-14
1.2305e-14
6.52704e-15
3.05713e-15
1.22899e-15
3.96749e-16
7.76314e-17
4.85483e-18
4.09646e-12
4.08796e-12
4.07162e-12
4.04739e-12
4.01528e-12
3.97534e-12
3.9276e-12
3.87206e-12
3.80872e-12
3.73764e-12
3.65904e-12
3.57362e-12
3.47171e-12
3.35572e-12
3.22847e-12
3.0929e-12
2.95197e-12
2.80873e-12
2.66634e-12
2.5217e-12
2.37583e-12
2.22991e-12
2.08515e-12
1.94278e-12
1.80407e-12
1.6705e-12
1.54014e-12
1.41378e-12
1.29231e-12
1.17696e-12
1.06907e-12
9.68477e-13
8.72144e-13
7.80599e-13
6.94244e-13
6.13398e-13
5.38356e-13
4.6947e-13
4.07266e-13
3.52371e-13
3.01016e-13
2.53763e-13
2.11358e-13
1.74732e-13
1.44672e-13
1.21282e-13
1.04536e-13
9.30031e-14
7.77048e-14
6.10349e-14
4.48923e-14
3.07094e-14
1.93536e-14
1.10963e-14
5.69722e-15
2.56847e-15
9.89951e-16
3.10056e-16
6.32042e-17
4.50156e-18
4.36197e-12
4.35287e-12
4.3354e-12
4.30948e-12
4.27517e-12
4.23253e-12
4.18158e-12
4.12228e-12
4.05449e-12
3.9779e-12
3.89201e-12
3.79633e-12
3.68117e-12
3.55061e-12
3.40833e-12
3.25774e-12
3.10206e-12
2.94432e-12
2.78737e-12
2.63379e-12
2.47898e-12
2.32447e-12
2.17152e-12
2.02124e-12
1.8748e-12
1.73357e-12
1.59581e-12
1.46217e-12
1.3353e-12
1.21586e-12
1.10263e-12
9.96103e-13
8.94675e-13
7.98836e-13
7.08905e-13
6.25093e-13
5.47582e-13
4.766e-13
4.12538e-13
3.55958e-13
3.03076e-13
2.5464e-13
2.11562e-13
1.74978e-13
1.45589e-13
1.23894e-13
1.11377e-13
9.54468e-14
7.75543e-14
5.93899e-14
4.25523e-14
2.82753e-14
1.72375e-14
9.50974e-15
4.66608e-15
1.99148e-15
7.17989e-16
2.101e-16
4.25465e-17
3.54133e-18
4.64513e-12
4.6354e-12
4.61667e-12
4.58891e-12
4.55222e-12
4.50668e-12
4.45239e-12
4.38937e-12
4.31756e-12
4.23658e-12
4.14527e-12
4.03098e-12
3.89784e-12
3.7498e-12
3.5906e-12
3.42381e-12
3.25283e-12
3.08089e-12
2.91104e-12
2.74618e-12
2.58146e-12
2.41814e-12
2.2571e-12
2.09908e-12
1.94498e-12
1.79601e-12
1.65076e-12
1.50999e-12
1.37661e-12
1.25134e-12
1.13294e-12
1.02024e-12
9.13783e-13
8.13868e-13
7.20651e-13
6.34212e-13
5.54611e-13
4.81947e-13
4.16414e-13
3.57992e-13
3.03503e-13
2.5394e-13
2.10381e-13
1.74131e-13
1.4566e-13
1.2519e-13
1.11837e-13
9.43346e-14
7.50474e-14
5.60175e-14
3.89283e-14
2.49374e-14
1.45551e-14
7.62599e-15
3.51801e-15
1.3911e-15
4.55693e-16
1.19535e-16
2.25119e-17
2.18355e-18
4.94945e-12
4.939e-12
4.91884e-12
4.88897e-12
4.84953e-12
4.80066e-12
4.7425e-12
4.67524e-12
4.59918e-12
4.5151e-12
4.40432e-12
4.27068e-12
4.11835e-12
3.95148e-12
3.77408e-12
3.58997e-12
3.4028e-12
3.21597e-12
3.03271e-12
2.856e-12
2.68168e-12
2.51021e-12
2.34171e-12
2.17637e-12
2.01468e-12
1.85761e-12
1.70421e-12
1.55556e-12
1.41516e-12
1.28353e-12
1.15803e-12
1.03956e-12
9.28488e-13
8.24898e-13
7.28781e-13
6.40114e-13
5.58876e-13
4.85145e-13
4.19395e-13
3.57972e-13
3.01551e-13
2.50937e-13
2.07276e-13
1.71905e-13
1.45554e-13
1.29738e-13
1.11717e-13
9.13909e-14
7.03693e-14
5.0515e-14