/*--------------------------------*- C++ -*----------------------------------*\
| =========                 |                                                 |
| \\      /  F ield         | OpenFOAM: The Open Source CFD Toolbox           |
|  \\    /   O peration     | Version:  v1906                                 |
|   \\  /    A nd           | Web:      www.OpenFOAM.com                      |
|    \\/     M anipulation  |                                                 |
\*---------------------------------------------------------------------------*/
FoamFile
{
    version     2.0;
    format      ascii;
    class       volScalarField;
    location    "2.83";
    object      C2H4;
}
// * * * * * * * * * * * * * * * * * * * * * * * * * * * * * * * * * * * * * //

dimensions      [0 0 0 0 0 0 0];


internalField   nonuniform List<scalar> 
26400
(
3.4119e-10
3.40743e-10
3.39857e-10
3.38531e-10
3.3677e-10
3.34575e-10
3.31953e-10
3.28909e-10
3.25451e-10
3.21585e-10
3.17321e-10
3.12669e-10
3.07639e-10
3.02242e-10
2.96492e-10
2.904e-10
2.83981e-10
2.77251e-10
2.70224e-10
2.62917e-10
2.55346e-10
2.4753e-10
2.39486e-10
2.31234e-10
2.22793e-10
2.14182e-10
2.05423e-10
1.96534e-10
1.87538e-10
1.78452e-10
1.69332e-10
1.60199e-10
1.51044e-10
1.41891e-10
1.32765e-10
1.23688e-10
1.14685e-10
1.05778e-10
9.69923e-11
8.83529e-11
7.98861e-11
7.16192e-11
6.35814e-11
5.58037e-11
4.83202e-11
4.11684e-11
3.43907e-11
2.80364e-11
2.2163e-11
1.68388e-11
1.21431e-11
8.16402e-12
4.98668e-12
2.66701e-12
1.18669e-12
4.1004e-13
1.00193e-13
1.48585e-14
9.37983e-16
2.26343e-17
3.57579e-10
3.57111e-10
3.56182e-10
3.54792e-10
3.52945e-10
3.50645e-10
3.47897e-10
3.44706e-10
3.41081e-10
3.3703e-10
3.32562e-10
3.27687e-10
3.22417e-10
3.16764e-10
3.1074e-10
3.0436e-10
2.97638e-10
2.90591e-10
2.83234e-10
2.75585e-10
2.67662e-10
2.59483e-10
2.51068e-10
2.42437e-10
2.33609e-10
2.24606e-10
2.15449e-10
2.0616e-10
1.9676e-10
1.87268e-10
1.77742e-10
1.68203e-10
1.58642e-10
1.49086e-10
1.39559e-10
1.30084e-10
1.20687e-10
1.11392e-10
1.02223e-10
9.32054e-11
8.43673e-11
7.57363e-11
6.73422e-11
5.92163e-11
5.13926e-11
4.39085e-11
3.68057e-11
3.01324e-11
2.39451e-11
1.83108e-11
1.33099e-11
9.03369e-12
5.57701e-12
3.01418e-12
1.35122e-12
4.67177e-13
1.13269e-13
1.6605e-14
1.04697e-15
2.54641e-17
3.78298e-10
3.778e-10
3.76813e-10
3.75337e-10
3.73374e-10
3.7093e-10
3.68011e-10
3.64622e-10
3.60772e-10
3.5647e-10
3.51726e-10
3.46551e-10
3.40957e-10
3.34958e-10
3.28567e-10
3.218e-10
3.14673e-10
3.07202e-10
2.99405e-10
2.91301e-10
2.8291e-10
2.7425e-10
2.65344e-10
2.56211e-10
2.46875e-10
2.37357e-10
2.2768e-10
2.17868e-10
2.07941e-10
1.97923e-10
1.87873e-10
1.77812e-10
1.6773e-10
1.57657e-10
1.47618e-10
1.37639e-10
1.27744e-10
1.17959e-10
1.08311e-10
9.88218e-11
8.95231e-11
8.04436e-11
7.16135e-11
6.30648e-11
5.48316e-11
4.69513e-11
3.94656e-11
3.24222e-11
2.58768e-11
1.9896e-11
1.45601e-11
9.96396e-12
6.211e-12
3.39135e-12
1.53398e-12
5.32519e-13
1.28507e-13
1.8652e-14
1.16989e-15
2.85036e-17
4.00966e-10
4.00435e-10
3.99382e-10
3.97807e-10
3.95714e-10
3.93107e-10
3.89994e-10
3.86381e-10
3.82276e-10
3.77691e-10
3.72636e-10
3.67122e-10
3.61164e-10
3.54775e-10
3.47972e-10
3.4077e-10
3.33187e-10
3.25241e-10
3.16951e-10
3.08339e-10
2.99424e-10
2.90228e-10
2.80774e-10
2.71085e-10
2.61184e-10
2.51095e-10
2.40843e-10
2.30453e-10
2.19948e-10
2.09352e-10
1.98727e-10
1.88096e-10
1.77447e-10
1.66811e-10
1.56217e-10
1.45692e-10
1.35259e-10
1.24948e-10
1.14785e-10
1.04792e-10
9.50017e-11
8.54447e-11
7.61523e-11
6.71568e-11
5.84928e-11
5.01977e-11
4.2313e-11
3.48855e-11
2.79698e-11
2.16311e-11
1.59484e-11
1.10171e-11
6.94605e-12
3.84063e-12
1.7557e-12
6.11891e-13
1.46662e-13
2.08956e-14
1.29743e-15
3.17869e-17
4.25168e-10
4.24601e-10
4.23476e-10
4.21794e-10
4.19559e-10
4.16775e-10
4.1345e-10
4.09592e-10
4.05211e-10
4.00317e-10
3.94923e-10
3.89041e-10
3.82686e-10
3.75874e-10
3.68622e-10
3.60948e-10
3.5287e-10
3.4441e-10
3.35587e-10
3.26423e-10
3.16942e-10
3.07167e-10
2.97122e-10
2.86833e-10
2.76323e-10
2.65621e-10
2.54751e-10
2.43741e-10
2.32616e-10
2.21401e-10
2.10163e-10
1.98923e-10
1.8767e-10
1.76437e-10
1.65254e-10
1.5415e-10
1.43148e-10
1.32279e-10
1.21572e-10
1.11047e-10
1.00737e-10
9.06769e-11
8.08975e-11
7.14321e-11
6.23157e-11
5.35857e-11
4.52833e-11
3.74548e-11
3.0154e-11
2.3445e-11
1.74054e-11
1.21307e-11
7.73408e-12
4.33344e-12
2.00644e-12
7.04017e-13
1.67546e-13
2.34772e-14
1.4424e-15
3.54387e-17
4.50899e-10
4.50292e-10
4.4909e-10
4.47291e-10
4.44902e-10
4.41926e-10
4.38373e-10
4.3425e-10
4.29569e-10
4.24342e-10
4.1858e-10
4.123e-10
4.05517e-10
3.98248e-10
3.90512e-10
3.82328e-10
3.73717e-10
3.64701e-10
3.55304e-10
3.45547e-10
3.35458e-10
3.2506e-10
3.14381e-10
3.03447e-10
2.92287e-10
2.80927e-10
2.69397e-10
2.57724e-10
2.45938e-10
2.34064e-10
2.22173e-10
2.10286e-10
1.98394e-10
1.86529e-10
1.74723e-10
1.63007e-10
1.51406e-10
1.3995e-10
1.28671e-10
1.1759e-10
1.06738e-10
9.61519e-11
8.58655e-11
7.59124e-11
6.63276e-11
5.71488e-11
4.84168e-11
4.01773e-11
3.24828e-11
2.53955e-11
1.89908e-11
1.33624e-11
8.62478e-12
4.90548e-12
2.30759e-12
8.17154e-13
1.93144e-13
2.6459e-14
1.60093e-15
3.93472e-17
4.78239e-10
4.77591e-10
4.76304e-10
4.7438e-10
4.71823e-10
4.68641e-10
4.6484e-10
4.60432e-10
4.55427e-10
4.49838e-10
4.43681e-10
4.36971e-10
4.29725e-10
4.21963e-10
4.13704e-10
4.04971e-10
3.95786e-10
3.86173e-10
3.76156e-10
3.65763e-10
3.55019e-10
3.43953e-10
3.32593e-10
3.20969e-10
3.0911e-10
2.97047e-10
2.84811e-10
2.72431e-10
2.59939e-10
2.47363e-10
2.34777e-10
2.22204e-10
2.09632e-10
1.97098e-10
1.84634e-10
1.72273e-10
1.60041e-10
1.47968e-10
1.36088e-10
1.24421e-10
1.13002e-10
1.01864e-10
9.10469e-11
8.05835e-11
7.05095e-11
6.08621e-11
5.16821e-11
4.30144e-11
3.49108e-11
2.74323e-11
2.06529e-11
1.46639e-11
9.57974e-12
5.53468e-12
2.65228e-12
9.50401e-13
2.23009e-13
2.96196e-14
1.75967e-15
4.3236e-17
5.07298e-10
5.06603e-10
5.05226e-10
5.03166e-10
5.0043e-10
4.97023e-10
4.92955e-10
4.88238e-10
4.82883e-10
4.76904e-10
4.70319e-10
4.63144e-10
4.55399e-10
4.47105e-10
4.38283e-10
4.28957e-10
4.19153e-10
4.08896e-10
3.98213e-10
3.87134e-10
3.75687e-10
3.63903e-10
3.51813e-10
3.39448e-10
3.26841e-10
3.14025e-10
3.01033e-10
2.87898e-10
2.74653e-10
2.61327e-10
2.48001e-10
2.34698e-10
2.21406e-10
2.08162e-10
1.95002e-10
1.8196e-10
1.69064e-10
1.56347e-10
1.43831e-10
1.31548e-10
1.19533e-10
1.07823e-10
9.64524e-11
8.54598e-11
7.48797e-11
6.47492e-11
5.51082e-11
4.60007e-11
3.7477e-11
2.95968e-11
2.24319e-11
1.60722e-11
1.06314e-11
6.24726e-12
3.06247e-12
1.11401e-12
2.59833e-13
3.32952e-14
1.9365e-15
4.75563e-17
5.38195e-10
5.37451e-10
5.35975e-10
5.33769e-10
5.30838e-10
5.27191e-10
5.22835e-10
5.17783e-10
5.1205e-10
5.0565e-10
4.98602e-10
4.90926e-10
4.82641e-10
4.73772e-10
4.64342e-10
4.54378e-10
4.43906e-10
4.32956e-10
4.21557e-10
4.09739e-10
3.97536e-10
3.84981e-10
3.72106e-10
3.58946e-10
3.45538e-10
3.31915e-10
3.18114e-10
3.04171e-10
2.9012e-10
2.75995e-10
2.61881e-10
2.478e-10
2.33741e-10
2.19744e-10
2.05845e-10
1.92082e-10
1.78482e-10
1.65081e-10
1.519e-10
1.38974e-10
1.26339e-10
1.1403e-10
1.02084e-10
9.05409e-11
7.94349e-11
6.88031e-11
5.86844e-11
4.91216e-11
4.01622e-11
3.18656e-11
2.43033e-11
1.75641e-11
1.17596e-11
7.02864e-12
3.52432e-12
1.30426e-12
3.02513e-13
3.69937e-14
2.08156e-15
5.04353e-17
5.71063e-10
5.70266e-10
5.68683e-10
5.66318e-10
5.63175e-10
5.59265e-10
5.54599e-10
5.49189e-10
5.43049e-10
5.36197e-10
5.28651e-10
5.20433e-10
5.11567e-10
5.02077e-10
4.91992e-10
4.81338e-10
4.70147e-10
4.5845e-10
4.46278e-10
4.33667e-10
4.20651e-10
4.07266e-10
3.93548e-10
3.79536e-10
3.65267e-10
3.5078e-10
3.36113e-10
3.21305e-10
3.06393e-10
2.91414e-10
2.76458e-10
2.61549e-10
2.46673e-10
2.31876e-10
2.17195e-10
2.02669e-10
1.8833e-10
1.74201e-10
1.60318e-10
1.46716e-10
1.33431e-10
1.20499e-10
1.07956e-10
9.58412e-11
8.41917e-11
7.3044e-11
6.24364e-11
5.24111e-11
4.30007e-11
3.42746e-11
2.63025e-11
1.9172e-11
1.29944e-11
7.90928e-12
4.05335e-12
1.52704e-12
3.53443e-13
4.0945e-14
2.21757e-15
5.26853e-17
6.06052e-10
6.05196e-10
6.03498e-10
6.0096e-10
5.97588e-10
5.93394e-10
5.88389e-10
5.82588e-10
5.76009e-10
5.68671e-10
5.60591e-10
5.51793e-10
5.42301e-10
5.32145e-10
5.21353e-10
5.09958e-10
4.97992e-10
4.85489e-10
4.72487e-10
4.59022e-10
4.45131e-10
4.30855e-10
4.16232e-10
4.01304e-10
3.86112e-10
3.70698e-10
3.55103e-10
3.39368e-10
3.23535e-10
3.07643e-10
2.91787e-10
2.75993e-10
2.60247e-10
2.44596e-10
2.29082e-10
2.13741e-10
1.98613e-10
1.8372e-10
1.69101e-10
1.54791e-10
1.40826e-10
1.27242e-10
1.14076e-10
1.01367e-10
8.91532e-11
7.7471e-11
6.63574e-11
5.58531e-11
4.59841e-11
3.68169e-11
2.84239e-11
2.08921e-11
1.43385e-11
8.92674e-12
4.65022e-12
1.78071e-12
4.10765e-13
4.45621e-14
2.28767e-15
5.22685e-17
6.43328e-10
6.42409e-10
6.40586e-10
6.37861e-10
6.34242e-10
6.2974e-10
6.2437e-10
6.18147e-10
6.11092e-10
6.03225e-10
5.9457e-10
5.85147e-10
5.74985e-10
5.64113e-10
5.52564e-10
5.40372e-10
5.27574e-10
5.14207e-10
5.00311e-10
4.85928e-10
4.71097e-10
4.55863e-10
4.40269e-10
4.24358e-10
4.08176e-10
3.91767e-10
3.75177e-10
3.5845e-10
3.41631e-10
3.2476e-10
3.07941e-10
2.912e-10
2.74522e-10
2.57957e-10
2.4155e-10
2.25337e-10
2.09378e-10
1.9368e-10
1.78283e-10
1.63226e-10
1.48545e-10
1.34279e-10
1.20463e-10
1.07135e-10
9.43359e-11
8.21017e-11
7.04684e-11
5.94744e-11
4.91388e-11
3.95229e-11
3.07001e-11
2.27526e-11
1.57918e-11
9.97556e-12
5.29702e-12
2.06636e-12
4.75642e-13
4.81061e-14
2.3439e-15
5.0689e-17
6.83076e-10
6.82089e-10
6.80131e-10
6.77205e-10
6.7332e-10
6.68487e-10
6.62723e-10
6.56046e-10
6.48477e-10
6.40039e-10
6.30759e-10
6.20666e-10
6.09783e-10
5.98143e-10
5.85782e-10
5.72737e-10
5.59047e-10
5.44755e-10
5.29902e-10
5.14534e-10
4.98695e-10
4.82434e-10
4.65797e-10
4.48833e-10
4.31589e-10
4.14114e-10
3.96458e-10
3.78668e-10
3.60791e-10
3.42873e-10
3.25023e-10
3.07266e-10
2.89591e-10
2.7205e-10
2.5469e-10
2.37554e-10
2.20702e-10
2.04144e-10
1.87919e-10
1.72067e-10
1.56627e-10
1.41637e-10
1.27136e-10
1.1316e-10
9.97494e-11
8.6942e-11
7.47722e-11
6.32765e-11
5.24663e-11
4.2398e-11
3.31443e-11
2.47828e-11
1.7416e-11
1.11642e-11
6.04375e-12
2.40417e-12
5.52045e-13
5.17248e-14
2.3971e-15
4.85258e-17
7.255e-10
7.24441e-10
7.22339e-10
7.19197e-10
7.15026e-10
7.0984e-10
7.03654e-10
6.9649e-10
6.8837e-10
6.79321e-10
6.69371e-10
6.58553e-10
6.46899e-10
6.34438e-10
6.21209e-10
6.07251e-10
5.92608e-10
5.77324e-10
5.61448e-10
5.45026e-10
5.28108e-10
5.10746e-10
4.92992e-10
4.74898e-10
4.56517e-10
4.379e-10
4.19102e-10
4.00173e-10
3.81164e-10
3.62123e-10
3.43166e-10
3.2432e-10
3.05573e-10
2.86981e-10
2.68593e-10
2.50474e-10
2.32671e-10
2.15191e-10
1.98079e-10
1.81377e-10
1.65126e-10
1.49367e-10
1.34137e-10
1.19477e-10
1.05423e-10
9.20151e-11
7.92879e-11
6.72754e-11
5.59824e-11
4.54597e-11
3.57763e-11
2.70155e-11
1.93021e-11
1.25192e-11
6.90627e-12
2.81061e-12
6.45498e-13
5.91698e-14
2.5775e-15
4.82857e-17
7.7082e-10
7.69684e-10
7.67429e-10
7.64059e-10
7.59586e-10
7.54023e-10
7.47391e-10
7.3971e-10
7.31006e-10
7.21308e-10
7.10646e-10
6.99056e-10
6.86574e-10
6.7324e-10
6.59087e-10
6.44158e-10
6.285e-10
6.12162e-10
5.95194e-10
5.77649e-10
5.59581e-10
5.41045e-10
5.22097e-10
5.02795e-10
4.83195e-10
4.63355e-10
4.43331e-10
4.2318e-10
4.02956e-10
3.82711e-10
3.62566e-10
3.4255e-10
3.22654e-10
3.02935e-10
2.8345e-10
2.64267e-10
2.45433e-10
2.26958e-10
2.08888e-10
1.91269e-10
1.74144e-10
1.57555e-10
1.41542e-10
1.26146e-10
1.11405e-10
9.73582e-11
8.40417e-11
7.14875e-11
5.96937e-11
4.8704e-11
3.85764e-11
2.93873e-11
2.12461e-11
1.40127e-11
7.91932e-12
3.33693e-12
7.7578e-13
7.11456e-14
2.95074e-15
5.20202e-17
8.19276e-10
8.18059e-10
8.15642e-10
8.12031e-10
8.07238e-10
8.01278e-10
7.94174e-10
7.85947e-10
7.76628e-10
7.66245e-10
7.54835e-10
7.42433e-10
7.2908e-10
7.14819e-10
6.99695e-10
6.83745e-10
6.67018e-10
6.49567e-10
6.31446e-10
6.12712e-10
5.93424e-10
5.73641e-10
5.53424e-10
5.32835e-10
5.11936e-10
4.9079e-10
4.69457e-10
4.47999e-10
4.26473e-10
4.04937e-10
3.83516e-10
3.6224e-10
3.41102e-10
3.20163e-10
2.99501e-10
2.79172e-10
2.59224e-10
2.39671e-10
2.20562e-10
2.01946e-10
1.83869e-10
1.66377e-10
1.49512e-10
1.33316e-10
1.1783e-10
1.03092e-10
8.91423e-11
7.60115e-11
6.36929e-11
5.22232e-11
4.16489e-11
3.20358e-11
2.34725e-11
1.57936e-11
9.20236e-12
4.06813e-12
9.91056e-13
9.41064e-14
3.91727e-15
6.8023e-17
8.71147e-10
8.69845e-10
8.6726e-10
8.63397e-10
8.5827e-10
8.51897e-10
8.443e-10
8.35505e-10
8.25541e-10
8.14443e-10
8.02247e-10
7.88993e-10
7.74725e-10
7.5949e-10
7.43337e-10
7.26318e-10
7.08472e-10
6.89857e-10
6.70532e-10
6.50556e-10
6.29993e-10
6.08906e-10
5.8736e-10
5.65421e-10
5.43154e-10
5.20627e-10
4.97905e-10
4.75053e-10
4.52135e-10
4.29213e-10
4.06421e-10
3.8379e-10
3.61315e-10
3.39063e-10
3.17119e-10
2.9554e-10
2.7438e-10
2.53651e-10
2.33406e-10
2.13697e-10
1.94574e-10
1.76087e-10
1.58281e-10
1.41201e-10
1.2489e-10
1.0939e-10
9.47414e-11
8.09792e-11
6.80966e-11
5.61228e-11
4.50929e-11
3.50586e-11
2.60868e-11
1.79811e-11
1.0893e-11
5.1468e-12
1.38339e-12
1.44237e-13
6.73821e-15
1.23504e-16
9.26721e-10
9.25332e-10
9.22574e-10
9.18455e-10
9.12987e-10
9.0619e-10
8.98089e-10
8.8871e-10
8.78087e-10
8.66255e-10
8.53253e-10
8.39124e-10
8.23914e-10
8.07673e-10
7.90454e-10
7.72312e-10
7.53305e-10
7.33478e-10
7.12893e-10
6.91615e-10
6.69713e-10
6.47253e-10
6.24314e-10
6.00964e-10
5.77272e-10
5.53307e-10
5.29138e-10
5.04833e-10
4.80459e-10
4.56081e-10
4.31838e-10
4.07762e-10
3.83848e-10
3.60195e-10
3.36867e-10
3.13926e-10
2.91431e-10
2.69402e-10
2.47897e-10
2.26971e-10
2.06679e-10
1.87072e-10
1.68202e-10
1.50118e-10
1.32866e-10
1.1649e-10
1.01031e-10
8.65277e-11
7.30083e-11
6.04637e-11
4.89263e-11
3.84364e-11
2.90472e-11
2.05416e-11
1.30091e-11
6.65972e-12
2.06609e-12
2.58943e-13
1.69205e-14
3.62747e-16
9.86287e-10
9.84812e-10
9.81882e-10
9.77504e-10
9.71694e-10
9.64473e-10
9.55866e-10
9.45903e-10
9.34618e-10
9.22048e-10
9.08236e-10
8.93226e-10
8.77068e-10
8.59814e-10
8.41518e-10
8.2224e-10
8.0204e-10
7.80981e-10
7.59113e-10
7.36502e-10
7.13236e-10
6.89382e-10
6.65013e-10
6.40202e-10
6.15023e-10
5.89548e-10
5.63853e-10
5.3801e-10
5.12091e-10
4.86166e-10
4.60383e-10
4.34775e-10
4.09344e-10
3.8419e-10
3.59381e-10
3.3498e-10
3.11049e-10
2.87604e-10
2.64707e-10
2.42419e-10
2.20797e-10
1.99901e-10
1.79785e-10
1.60504e-10
1.42112e-10
1.24659e-10
1.08193e-10
9.27608e-11
7.83989e-11
6.50981e-11
5.29016e-11
4.18489e-11
3.1986e-11
2.30932e-11
1.5201e-11
8.40888e-12
3.13076e-12
5.56259e-13
6.43532e-14
1.80387e-15
1.05012e-09
1.04856e-09
1.04546e-09
1.04083e-09
1.03468e-09
1.02704e-09
1.01794e-09
1.0074e-09
9.95465e-10
9.8217e-10
9.6756e-10
9.51683e-10
9.3459e-10
9.16336e-10
8.96977e-10
8.76576e-10
8.55194e-10
8.32897e-10
8.09754e-10
7.85831e-10
7.61203e-10
7.35946e-10
7.10136e-10
6.8385e-10
6.57165e-10
6.3016e-10
6.02912e-10
5.75496e-10
5.47989e-10
5.20464e-10
4.93073e-10
4.65849e-10
4.38827e-10
4.12082e-10
3.85687e-10
3.59709e-10
3.34215e-10
3.09227e-10
2.84809e-10
2.61022e-10
2.37928e-10
2.15588e-10
1.9406e-10
1.73405e-10
1.53679e-10
1.34942e-10
1.17247e-10
1.00654e-10
8.52209e-11
7.08792e-11
5.77628e-11
4.59161e-11
3.5384e-11
2.60069e-11
1.77725e-11
1.06989e-11
5.03302e-12
1.50596e-12
3.12892e-13
1.34323e-14
1.11901e-09
1.11737e-09
1.11411e-09
1.10923e-09
1.10276e-09
1.09472e-09
1.08513e-09
1.07404e-09
1.06148e-09
1.04748e-09
1.03211e-09
1.01539e-09
9.97399e-10
9.78181e-10
9.57799e-10
9.36315e-10
9.13797e-10
8.90312e-10
8.65923e-10
8.40707e-10
8.14741e-10
7.88103e-10
7.60874e-10
7.33136e-10
7.0497e-10
6.76457e-10
6.47678e-10
6.18712e-10
5.89638e-10
5.60531e-10
5.31542e-10
5.02726e-10
4.7411e-10
4.45773e-10
4.17787e-10
3.9022e-10
3.63139e-10
3.36607e-10
3.10646e-10
2.85319e-10
2.6069e-10
2.36821e-10
2.13774e-10
1.91611e-10
1.70396e-10
1.50191e-10
1.31054e-10
1.13044e-10
9.62319e-11
8.06896e-11
6.6402e-11
5.35048e-11
4.20496e-11
3.20382e-11
2.33402e-11
1.59589e-11
9.77723e-12
5.14845e-12
1.62274e-12
9.19547e-14
1.19288e-09
1.19104e-09
1.1874e-09
1.18195e-09
1.17473e-09
1.16575e-09
1.15506e-09
1.14268e-09
1.12867e-09
1.11306e-09
1.09592e-09
1.0773e-09
1.05726e-09
1.03586e-09
1.01319e-09
9.89298e-10
9.64275e-10
9.38184e-10
9.11109e-10
8.83136e-10
8.54356e-10
8.24859e-10
7.94738e-10
7.64086e-10
7.32998e-10
7.01569e-10
6.6989e-10
6.38053e-10
6.06149e-10
5.7426e-10
5.42548e-10
5.11107e-10
4.79948e-10
4.49161e-10
4.18829e-10
3.89032e-10
3.59845e-10
3.31291e-10
3.03444e-10
2.76379e-10
2.50165e-10
2.24872e-10
2.00569e-10
1.77326e-10
1.55213e-10
1.34312e-10
1.14723e-10
9.65519e-11
7.9879e-11
6.4652e-11
5.10162e-11
3.90287e-11
2.87229e-11
1.99373e-11
1.2699e-11
7.04684e-12
2.99717e-12
6.93456e-13
6.05972e-14
1.38832e-15
1.271e-09
1.26895e-09
1.26486e-09
1.25877e-09
1.25068e-09
1.24063e-09
1.22867e-09
1.21482e-09
1.19915e-09
1.18172e-09
1.16257e-09
1.14179e-09
1.11944e-09
1.09559e-09
1.07034e-09
1.04375e-09
1.01592e-09
9.86916e-10
9.56855e-10
9.25834e-10
8.93955e-10
8.61326e-10
8.28053e-10
7.94245e-10
7.6001e-10
7.2546e-10
6.90702e-10
6.55842e-10
6.20983e-10
5.86225e-10
5.51736e-10
5.17624e-10
4.83914e-10
4.50709e-10
4.18104e-10
3.86188e-10
3.54989e-10
3.24598e-10
2.95104e-10
2.66593e-10
2.3915e-10
2.12862e-10
1.87812e-10
1.64088e-10
1.41773e-10
1.20954e-10
1.01712e-10
8.4121e-11
6.81468e-11
5.38624e-11
4.13941e-11
3.07949e-11
2.18577e-11
1.45572e-11
8.84374e-12
4.63126e-12
1.8374e-12
3.86362e-13
3.00308e-14
6.25373e-16
1.35361e-09
1.35133e-09
1.34678e-09
1.33999e-09
1.33098e-09
1.31979e-09
1.30647e-09
1.29107e-09
1.27365e-09
1.25427e-09
1.23301e-09
1.20994e-09
1.18515e-09
1.15873e-09
1.13076e-09
1.10133e-09
1.07054e-09
1.03849e-09
1.00531e-09
9.71118e-10
9.36022e-10
9.00149e-10
8.63622e-10
8.26566e-10
7.89105e-10
7.51366e-10
7.13474e-10
6.75552e-10
6.37717e-10
6.00083e-10
5.62832e-10
5.26079e-10
4.89867e-10
4.54313e-10
4.19522e-10
3.85522e-10
3.52417e-10
3.20308e-10
2.89291e-10
2.59461e-10
2.30913e-10
2.03739e-10
1.78033e-10
1.53888e-10
1.31401e-10
1.1067e-10
9.1799e-11
7.47504e-11
5.95892e-11
4.63425e-11
3.50573e-11
2.56987e-11
1.79741e-11
1.1789e-11
7.02992e-12
3.58348e-12
1.37315e-12
2.73012e-13
1.93181e-14
3.53803e-16
1.44084e-09
1.43831e-09
1.43328e-09
1.42576e-09
1.41579e-09
1.40341e-09
1.38868e-09
1.37165e-09
1.3524e-09
1.331e-09
1.30753e-09
1.2821e-09
1.25478e-09
1.22568e-09
1.19488e-09
1.1625e-09
1.12865e-09
1.09347e-09
1.05708e-09
1.01962e-09
9.81225e-10
9.42031e-10
9.02179e-10
8.61809e-10
8.21064e-10
7.80086e-10
7.39016e-10
6.97996e-10
6.57159e-10
6.16634e-10
5.76615e-10
5.37228e-10
4.98536e-10
4.60673e-10
4.23668e-10
3.87638e-10
3.52694e-10
3.18946e-10
2.865e-10
2.55459e-10
2.25924e-10
1.97995e-10
1.7177e-10
1.47345e-10
1.24816e-10
1.04273e-10
8.58e-11
6.93456e-11
5.49376e-11
4.25496e-11
3.2121e-11
2.35308e-11
1.64466e-11
1.07732e-11
6.41991e-12
3.28929e-12
1.28557e-12
2.68122e-13
1.91922e-14
3.59495e-16
1.53257e-09
1.52979e-09
1.52425e-09
1.51598e-09
1.50501e-09
1.4914e-09
1.4752e-09
1.45649e-09
1.43534e-09
1.41185e-09
1.3861e-09
1.35821e-09
1.32828e-09
1.29638e-09
1.26265e-09
1.22723e-09
1.19023e-09
1.15182e-09
1.11214e-09
1.07133e-09
1.02955e-09
9.86963e-10
9.43715e-10
8.99967e-10
8.55878e-10
8.11605e-10
7.67307e-10
7.23142e-10
6.79261e-10
6.35807e-10
5.92988e-10
5.50936e-10
5.09728e-10
4.69502e-10
4.30295e-10
3.92238e-10
3.55454e-10
3.20062e-10
2.86173e-10
2.53897e-10
2.23338e-10
1.94599e-10
1.6778e-10
1.42981e-10
1.20296e-10
9.98185e-11
8.16157e-11
6.56467e-11
5.19145e-11
4.03149e-11
3.06114e-11
2.25934e-11
1.59084e-11
1.04956e-11
6.30287e-12
3.26731e-12
1.30737e-12
2.91182e-13
2.17059e-14
4.008e-16
1.62876e-09
1.62572e-09
1.61966e-09
1.6106e-09
1.5986e-09
1.5837e-09
1.56597e-09
1.5455e-09
1.5224e-09
1.49674e-09
1.46864e-09
1.43821e-09
1.40554e-09
1.37076e-09
1.33401e-09
1.29545e-09
1.25523e-09
1.2135e-09
1.17043e-09
1.12619e-09
1.08095e-09
1.03488e-09
9.88156e-10
9.40956e-10
8.93453e-10
8.45818e-10
7.98227e-10
7.50852e-10
7.03865e-10
6.57427e-10
6.11761e-10
5.67008e-10
5.23272e-10
4.80597e-10
4.3913e-10
3.99006e-10
3.60355e-10
3.23298e-10
2.87953e-10
2.54429e-10
2.22834e-10
1.93271e-10
1.65841e-10
1.40643e-10
1.17781e-10
9.73572e-11
7.93583e-11
6.38516e-11
5.08341e-11
4.01226e-11
3.09993e-11
2.31986e-11
1.65006e-11
1.09789e-11
6.6702e-12
3.53944e-12
1.48318e-12
3.64526e-13
3.00203e-14
6.06469e-16
1.72938e-09
1.72607e-09
1.71947e-09
1.70962e-09
1.69654e-09
1.6803e-09
1.66094e-09
1.63867e-09
1.61359e-09
1.58571e-09
1.55516e-09
1.52206e-09
1.48657e-09
1.44881e-09
1.40896e-09
1.36718e-09
1.32363e-09
1.27849e-09
1.23194e-09
1.18418e-09
1.13538e-09
1.08575e-09
1.03547e-09
9.84741e-10
9.33754e-10
8.82685e-10
8.31726e-10
7.81067e-10
7.30894e-10
6.81382e-10
6.32759e-10
5.85194e-10
5.38805e-10
4.93646e-10
4.49876e-10
4.07642e-10
3.67076e-10
3.28303e-10
2.91441e-10
2.56603e-10
2.23894e-10
1.93416e-10
1.65265e-10
1.39539e-10
1.16341e-10
9.57787e-11
7.78757e-11
6.2752e-11
5.05542e-11
4.15243e-11
3.28616e-11
2.48687e-11
1.78328e-11
1.19682e-11
7.37424e-12
4.02384e-12
1.79139e-12
5.16272e-13
5.42183e-14
1.43211e-15
1.83449e-09
1.8309e-09
1.82376e-09
1.8131e-09
1.79896e-09
1.78142e-09
1.76055e-09
1.73645e-09
1.70923e-09
1.679e-09
1.6459e-09
1.61006e-09
1.57166e-09
1.53084e-09
1.48778e-09
1.44266e-09
1.39567e-09
1.34701e-09
1.29686e-09
1.24543e-09
1.19295e-09
1.13962e-09
1.08566e-09
1.03127e-09
9.76679e-10
9.22063e-10
8.67633e-10
8.13593e-10
7.60139e-10
7.07461e-10
6.55787e-10
6.05298e-10
5.56103e-10
5.08361e-10
4.62219e-10
4.17815e-10
3.75276e-10
3.34728e-10
2.96294e-10
2.60085e-10
2.26208e-10
1.94762e-10
1.65842e-10
1.39524e-10
1.15919e-10
9.51162e-11
7.71889e-11
6.2198e-11
5.0191e-11
4.12714e-11
3.25554e-11
2.44534e-11
1.73424e-11
1.14857e-11
6.98359e-12
3.77483e-12
1.68301e-12
4.98366e-13
5.458e-14
1.56482e-15
1.94448e-09
1.9406e-09
1.93288e-09
1.92136e-09
1.90608e-09
1.88712e-09
1.86457e-09
1.83853e-09
1.80913e-09
1.77649e-09
1.74076e-09
1.7021e-09
1.66068e-09
1.61669e-09
1.57031e-09
1.52175e-09
1.47122e-09
1.4189e-09
1.36502e-09
1.30982e-09
1.25352e-09
1.19637e-09
1.1386e-09
1.08045e-09
1.02213e-09
9.63866e-10
9.05866e-10
8.48351e-10
7.91534e-10
7.35617e-10
6.80843e-10
6.27399e-10
5.7541e-10
5.25045e-10
4.76458e-10
4.29791e-10
3.85171e-10
3.42738e-10
3.02614e-10
2.64912e-10
2.29742e-10
1.97206e-10
1.67366e-10
1.40334e-10
1.16222e-10
9.51215e-11
7.71192e-11
6.22746e-11
5.05397e-11
4.14662e-11
3.24445e-11
2.41016e-11
1.68753e-11
1.10182e-11
6.59872e-12
3.51828e-12
1.56174e-12
4.77385e-13
5.51739e-14
1.66588e-15
2.05936e-09
2.05518e-09
2.04685e-09
2.03442e-09
2.01795e-09
1.99751e-09
1.9732e-09
1.94515e-09
1.91347e-09
1.87832e-09
1.83986e-09
1.79826e-09
1.75372e-09
1.70643e-09
1.65661e-09
1.60448e-09
1.55026e-09
1.49415e-09
1.43642e-09
1.3773e-09
1.31706e-09
1.25595e-09
1.19424e-09
1.13217e-09
1.07e-09
1.00797e-09
9.46281e-10
8.85177e-10
8.24884e-10
7.65618e-10
7.07635e-10
6.51133e-10
5.96251e-10
5.43168e-10
4.92045e-10
4.4301e-10
3.96212e-10
3.51794e-10
3.09884e-10
2.70598e-10
2.34045e-10
2.0033e-10
1.69514e-10
1.41715e-10
1.17048e-10
9.56213e-11
7.75681e-11
6.30894e-11
5.25424e-11
4.22609e-11
3.25751e-11
2.38643e-11
1.64625e-11
1.05763e-11
6.23002e-12
3.27513e-12
1.44641e-12
4.49511e-13
5.38454e-14
1.73709e-15
2.1794e-09
2.1749e-09
2.16594e-09
2.15256e-09
2.13483e-09
2.11284e-09
2.0867e-09
2.05654e-09
2.02249e-09
1.98472e-09
1.9434e-09
1.89874e-09
1.85093e-09
1.80021e-09
1.7468e-09
1.69096e-09
1.63288e-09
1.57284e-09
1.51108e-09
1.4479e-09
1.38356e-09
1.31835e-09
1.25255e-09
1.18643e-09
1.12026e-09
1.05432e-09
9.888e-10
9.23972e-10
8.60073e-10
7.97335e-10
7.36023e-10
6.76345e-10
6.18457e-10
5.62545e-10
5.08776e-10
4.57278e-10
4.08209e-10
3.61717e-10
3.17935e-10
2.76983e-10
2.38971e-10
2.04002e-10
1.72139e-10
1.43501e-10
1.18198e-10
9.63281e-11
7.80051e-11
6.33957e-11
5.28367e-11
4.23642e-11
3.24421e-11
2.3543e-11
1.60463e-11
1.016e-11
5.88671e-12
3.04428e-12
1.33195e-12
4.2276e-13
5.46276e-14
1.88089e-15
2.30493e-09
2.30009e-09
2.29046e-09
2.27609e-09
2.25704e-09
2.23343e-09
2.20536e-09
2.17297e-09
2.13643e-09
2.09591e-09
2.05161e-09
2.00373e-09
1.9525e-09
1.89816e-09
1.84098e-09
1.78121e-09
1.71914e-09
1.65498e-09
1.58904e-09
1.52162e-09
1.45301e-09
1.38353e-09
1.31346e-09
1.24312e-09
1.17279e-09
1.10277e-09
1.03327e-09
9.64561e-10
8.96912e-10
8.30563e-10
7.65789e-10
7.02808e-10
6.41793e-10
5.82936e-10
5.26407e-10
4.72339e-10
4.20898e-10
3.72239e-10
3.26503e-10
2.83814e-10
2.44281e-10
2.08003e-10
1.75053e-10
1.45558e-10
1.1963e-10
9.73644e-11
7.88497e-11
6.41652e-11
5.34838e-11
4.27016e-11
3.24438e-11
2.32828e-11
1.5642e-11
9.73336e-12
5.53341e-12
2.8103e-12
1.21485e-12
3.89096e-13
5.444e-14
2.02351e-15
2.43634e-09
2.43115e-09
2.42082e-09
2.40539e-09
2.38495e-09
2.35962e-09
2.32952e-09
2.2948e-09
2.25563e-09
2.21222e-09
2.16476e-09
2.11349e-09
2.05867e-09
2.00054e-09
1.93939e-09
1.8755e-09
1.80919e-09
1.7407e-09
1.67036e-09
1.59849e-09
1.52541e-09
1.45144e-09
1.37692e-09
1.30216e-09
1.22749e-09
1.1532e-09
1.07954e-09
1.0068e-09
9.35239e-10
8.65129e-10
7.96751e-10
7.30337e-10
6.66072e-10
6.04164e-10
5.44745e-10
4.87996e-10
4.34086e-10
3.83174e-10
3.35412e-10
2.90925e-10
2.49833e-10
2.12185e-10
1.78108e-10
1.47737e-10
1.21194e-10
9.86068e-11
8.00883e-11
6.56239e-11
5.4543e-11
4.31859e-11
3.24518e-11
2.29893e-11
1.52177e-11
9.30898e-12
5.18924e-12
2.58059e-12
1.09726e-12
3.54864e-13
5.48657e-14
2.1997e-15
2.5741e-09
2.56853e-09
2.55744e-09
2.5409e-09
2.51899e-09
2.49183e-09
2.45957e-09
2.42238e-09
2.38044e-09
2.33395e-09
2.28316e-09
2.22832e-09
2.16968e-09
2.10755e-09
2.04218e-09
1.97391e-09
1.90308e-09
1.83004e-09
1.75507e-09
1.67851e-09
1.60072e-09
1.52205e-09
1.44284e-09
1.36345e-09
1.28422e-09
1.20546e-09
1.12745e-09
1.05047e-09
9.74822e-10
9.00782e-10
8.28643e-10
7.58645e-10
6.90987e-10
6.2588e-10
5.63464e-10
5.03932e-10
4.47461e-10
3.94217e-10
3.44356e-10
2.98008e-10
2.55296e-10
2.16268e-10
1.81058e-10
1.49812e-10
1.22673e-10
9.98386e-11
8.16479e-11
6.87641e-11
5.59393e-11
4.36149e-11
3.23261e-11
2.25686e-11
1.46892e-11
8.80974e-12
4.80178e-12
2.33244e-12
9.72431e-13
3.14057e-13
5.20653e-14
2.27971e-15
2.7187e-09
2.71273e-09
2.70084e-09
2.68311e-09
2.65963e-09
2.63053e-09
2.59597e-09
2.55614e-09
2.51124e-09
2.4615e-09
2.40716e-09
2.3485e-09
2.28582e-09
2.21941e-09
2.14956e-09
2.07664e-09
2.00103e-09
1.92313e-09
1.84322e-09
1.7617e-09
1.67893e-09
1.59528e-09
1.51114e-09
1.42687e-09
1.34283e-09
1.25937e-09
1.17678e-09
1.09535e-09
1.01542e-09
9.37265e-10
8.61194e-10
7.87461e-10
7.16285e-10
6.4782e-10
5.82279e-10
5.19859e-10
4.60741e-10
4.05096e-10
3.53083e-10
3.04838e-10
2.60483e-10
2.20067e-10
1.83731e-10
1.51616e-10
1.23851e-10
1.00603e-10
8.21701e-11
6.92117e-11
5.60853e-11
4.3406e-11
3.18343e-11
2.19311e-11
1.40478e-11
8.267e-12
4.40396e-12
2.08195e-12
8.44609e-13
2.70383e-13
4.81349e-14
2.31813e-15
2.87072e-09
2.86432e-09
2.85158e-09
2.83256e-09
2.80739e-09
2.77622e-09
2.7392e-09
2.69655e-09
2.64848e-09
2.59524e-09
2.53712e-09
2.4744e-09
2.4074e-09
2.33637e-09
2.26172e-09
2.18382e-09
2.1031e-09
2.01996e-09
1.93484e-09
1.84804e-09
1.75998e-09
1.67107e-09
1.58169e-09
1.49225e-09
1.40313e-09
1.31471e-09
1.22727e-09
1.14117e-09
1.05672e-09
9.74242e-10
8.94045e-10
8.1639e-10
7.41504e-10
6.69557e-10
6.00776e-10
5.35368e-10
4.73523e-10
4.15416e-10
3.61213e-10
3.11054e-10
2.65052e-10
2.23272e-10
1.85867e-10
1.52986e-10
1.24747e-10
1.01277e-10
8.27557e-11
6.96204e-11
5.60736e-11
4.2959e-11
3.10784e-11
2.10497e-11
1.32149e-11
7.59494e-12
3.93413e-12
1.80081e-12
7.0694e-13
2.21954e-13
4.15538e-14
2.23174e-15
3.03077e-09
3.02391e-09
3.01023e-09
2.98984e-09
2.96286e-09
2.92944e-09
2.88978e-09
2.84409e-09
2.79262e-09
2.73564e-09
2.67344e-09
2.60637e-09
2.53465e-09
2.45867e-09
2.37885e-09
2.29563e-09
2.20944e-09
2.12074e-09
2.02999e-09
1.93755e-09
1.84385e-09
1.74931e-09
1.65437e-09
1.55943e-09
1.46491e-09
1.37122e-09
1.27866e-09
1.1876e-09
1.09839e-09
1.01135e-09
9.26821e-10
8.4507e-10
7.66269e-10
6.90676e-10
6.18523e-10
5.50023e-10
4.85372e-10
4.24752e-10
3.68335e-10
3.16283e-10
2.6863e-10
2.25533e-10
1.87151e-10
1.53654e-10
1.25183e-10
1.01882e-10
8.3784e-11
7.00957e-11
5.57766e-11
4.20693e-11
2.98863e-11
1.98329e-11
1.21654e-11
6.8053e-12
3.41436e-12
1.50498e-12
5.66567e-13
1.72636e-13
3.37354e-14
2.07014e-15
3.1995e-09
3.19213e-09
3.17745e-09
3.15557e-09
3.12663e-09
3.0908e-09
3.04828e-09
2.99932e-09
2.94417e-09
2.88313e-09
2.81653e-09
2.74469e-09
2.66789e-09
2.58657e-09
2.5012e-09
2.41223e-09
2.32016e-09
2.22546e-09
2.12864e-09
2.03018e-09
1.93045e-09
1.8299e-09
1.729e-09
1.6282e-09
1.52793e-09
1.42862e-09
1.33061e-09
1.23428e-09
1.14002e-09
1.04818e-09
9.59043e-10
8.72929e-10
7.9004e-10
7.10648e-10
6.34995e-10
5.63303e-10
4.95772e-10
4.3259e-10
3.73933e-10
3.19969e-10
2.70741e-10
2.26423e-10
1.87202e-10
1.53282e-10
1.2488e-10
1.02347e-10
8.65439e-11
7.04407e-11
5.47862e-11
4.04048e-11
2.80157e-11
1.80845e-11
1.07423e-11
5.78712e-12
2.7765e-12
1.15899e-12
4.08086e-13
1.1611e-13
2.2544e-14
1.60516e-15
3.37759e-09
3.36967e-09
3.35391e-09
3.33042e-09
3.29936e-09
3.26091e-09
3.2153e-09
3.16279e-09
3.10368e-09
3.03827e-09
2.96692e-09
2.88984e-09
2.8075e-09
2.72039e-09
2.62899e-09
2.53382e-09
2.43541e-09
2.33428e-09
2.23095e-09
2.12597e-09
2.01973e-09
1.91273e-09
1.80544e-09
1.69835e-09
1.59192e-09
1.48661e-09
1.38278e-09
1.28084e-09
1.18121e-09
1.08423e-09
9.90253e-10
8.99514e-10
8.12324e-10
7.28961e-10
6.49674e-10
5.74689e-10
5.04215e-10
4.38444e-10
3.77557e-10
3.21713e-10
2.70987e-10
2.25575e-10
1.85692e-10
1.51572e-10
1.23455e-10
1.01518e-10
8.5281e-11
6.84334e-11
5.22066e-11
3.75911e-11
2.53161e-11
1.57732e-11
8.9795e-12
4.59835e-12
2.07584e-12
8.03228e-13
2.57e-13
6.55121e-14
1.18037e-14
9.62955e-16
3.56733e-09
3.55881e-09
3.54185e-09
3.51658e-09
3.48318e-09
3.44185e-09
3.39284e-09
3.33644e-09
3.27297e-09
3.20279e-09
3.12605e-09
3.04323e-09
2.95482e-09
2.86136e-09
2.76337e-09
2.66143e-09
2.55608e-09
2.44792e-09
2.33751e-09
2.22542e-09
2.11211e-09
1.99809e-09
1.88389e-09
1.77e-09
1.65691e-09
1.54511e-09
1.43499e-09
1.32699e-09
1.22157e-09
1.11911e-09
1.01987e-09
9.24232e-10
8.32499e-10
7.44958e-10
6.61867e-10
5.83461e-10
5.09956e-10
4.41556e-10
3.78462e-10
3.20743e-10
2.68601e-10
2.22256e-10
1.81967e-10
1.48059e-10
1.2101e-10
1.01702e-10
8.30245e-11
6.48652e-11
4.80027e-11
3.32881e-11
2.13612e-11
1.24983e-11