/*--------------------------------*- C++ -*----------------------------------*\
| =========                 |                                                 |
| \\      /  F ield         | OpenFOAM: The Open Source CFD Toolbox           |
|  \\    /   O peration     | Version:  v1906                                 |
|   \\  /    A nd           | Web:      www.OpenFOAM.com                      |
|    \\/     M anipulation  |                                                 |
\*---------------------------------------------------------------------------*/
FoamFile
{
    version     2.0;
    format      ascii;
    class       volScalarField;
    location    "2.83";
    object      C2H5;
}
// * * * * * * * * * * * * * * * * * * * * * * * * * * * * * * * * * * * * * //

dimensions      [0 0 0 0 0 0 0];


internalField   nonuniform List<scalar> 
26400
(
1.90288e-12
1.90041e-12
1.8955e-12
1.88815e-12
1.87839e-12
1.86623e-12
1.8517e-12
1.83484e-12
1.81568e-12
1.79426e-12
1.77064e-12
1.74486e-12
1.71699e-12
1.68709e-12
1.65523e-12
1.62148e-12
1.58591e-12
1.54862e-12
1.50969e-12
1.46921e-12
1.42726e-12
1.38395e-12
1.33938e-12
1.29365e-12
1.24687e-12
1.19914e-12
1.15057e-12
1.10128e-12
1.05137e-12
1.00096e-12
9.50271e-13
8.99433e-13
8.48439e-13
7.97424e-13
7.46515e-13
6.9584e-13
6.45528e-13
5.95711e-13
5.46523e-13
4.98105e-13
4.50605e-13
4.04181e-13
3.58999e-13
3.15239e-13
2.73095e-13
2.32784e-13
1.9455e-13
1.58676e-13
1.25493e-13
9.53907e-14
6.88233e-14
4.62945e-14
2.82925e-14
1.51403e-14
6.74088e-15
2.33067e-15
5.69837e-16
8.45451e-17
5.33847e-18
1.28838e-19
1.9937e-12
1.99111e-12
1.98597e-12
1.97827e-12
1.96804e-12
1.9553e-12
1.94007e-12
1.9224e-12
1.90232e-12
1.87989e-12
1.85514e-12
1.82813e-12
1.79894e-12
1.76763e-12
1.73426e-12
1.69893e-12
1.6617e-12
1.62267e-12
1.58193e-12
1.53957e-12
1.49569e-12
1.4504e-12
1.40379e-12
1.35599e-12
1.30709e-12
1.25723e-12
1.2065e-12
1.15502e-12
1.10292e-12
1.0503e-12
9.97414e-13
9.44353e-13
8.91135e-13
8.37902e-13
7.84785e-13
7.31918e-13
6.79431e-13
6.2746e-13
5.76142e-13
5.2561e-13
4.76024e-13
4.27549e-13
3.80354e-13
3.34622e-13
2.90551e-13
2.48355e-13
2.08277e-13
1.70594e-13
1.35628e-13
1.03766e-13
7.5465e-14
5.12485e-14
3.16583e-14
1.71222e-14
7.6817e-15
2.65816e-15
6.45006e-16
9.46176e-17
5.96795e-18
1.45178e-19
2.10853e-12
2.10577e-12
2.10031e-12
2.09213e-12
2.08127e-12
2.06773e-12
2.05157e-12
2.0328e-12
2.01148e-12
1.98766e-12
1.96139e-12
1.93274e-12
1.90176e-12
1.86854e-12
1.83316e-12
1.79569e-12
1.75623e-12
1.71487e-12
1.67171e-12
1.62685e-12
1.5804e-12
1.53247e-12
1.48317e-12
1.43263e-12
1.38095e-12
1.32827e-12
1.27471e-12
1.22039e-12
1.16543e-12
1.10995e-12
1.05423e-12
9.98325e-13
9.42242e-13
8.86164e-13
8.3023e-13
7.74577e-13
7.19341e-13
6.64665e-13
6.10691e-13
5.57502e-13
5.05316e-13
4.54301e-13
4.04635e-13
3.56503e-13
3.10106e-13
2.65661e-13
2.23409e-13
1.83623e-13
1.46625e-13
1.12795e-13
8.25915e-14
5.65567e-14
3.52809e-14
1.92814e-14
8.73064e-15
3.03445e-15
7.33121e-16
1.06507e-16
6.6838e-18
1.62892e-19
2.23416e-12
2.23123e-12
2.2254e-12
2.21668e-12
2.2051e-12
2.19067e-12
2.17343e-12
2.15343e-12
2.13071e-12
2.10533e-12
2.07734e-12
2.04682e-12
2.01384e-12
1.97847e-12
1.94081e-12
1.90095e-12
1.85898e-12
1.815e-12
1.76913e-12
1.72147e-12
1.67214e-12
1.62126e-12
1.56896e-12
1.51536e-12
1.4606e-12
1.4048e-12
1.3481e-12
1.29064e-12
1.23254e-12
1.17393e-12
1.11511e-12
1.05611e-12
9.96929e-13
9.37756e-13
8.78772e-13
8.20121e-13
7.61905e-13
7.04307e-13
6.47481e-13
5.91458e-13
5.3648e-13
4.82752e-13
4.30456e-13
3.79784e-13
3.30936e-13
2.84133e-13
2.39613e-13
1.97646e-13
1.58546e-13
1.22686e-13
9.05141e-14
6.25751e-14
3.94899e-14
2.1861e-14
1.00086e-14
3.4943e-15
8.38973e-16
1.19693e-16
7.43745e-18
1.82295e-19
2.36832e-12
2.36519e-12
2.35896e-12
2.34966e-12
2.33729e-12
2.32188e-12
2.30349e-12
2.28214e-12
2.25789e-12
2.23081e-12
2.20095e-12
2.1684e-12
2.13323e-12
2.09553e-12
2.05539e-12
2.01292e-12
1.96822e-12
1.92141e-12
1.87259e-12
1.8219e-12
1.76945e-12
1.71539e-12
1.65984e-12
1.60295e-12
1.54485e-12
1.4857e-12
1.42563e-12
1.36479e-12
1.30332e-12
1.24136e-12
1.17924e-12
1.11694e-12
1.05447e-12
9.92033e-13
9.29807e-13
8.6798e-13
8.06617e-13
7.45923e-13
6.86082e-13
6.27073e-13
5.69138e-13
5.12539e-13
4.57466e-13
4.04116e-13
3.52692e-13
3.03415e-13
2.56522e-13
2.12281e-13
1.70999e-13
1.33039e-13
9.88442e-14
6.89565e-14
4.40195e-14
2.4706e-14
1.14653e-14
4.03364e-15
9.62381e-16
1.35112e-16
8.30981e-18
2.04291e-19
2.51096e-12
2.50761e-12
2.50096e-12
2.49102e-12
2.4778e-12
2.46134e-12
2.44169e-12
2.41888e-12
2.39298e-12
2.36406e-12
2.33218e-12
2.29743e-12
2.25989e-12
2.21967e-12
2.17686e-12
2.13158e-12
2.08393e-12
2.03405e-12
1.98206e-12
1.9281e-12
1.8723e-12
1.8148e-12
1.75576e-12
1.69533e-12
1.63366e-12
1.5709e-12
1.50722e-12
1.44277e-12
1.37771e-12
1.31218e-12
1.24653e-12
1.18074e-12
1.1148e-12
1.04892e-12
9.83283e-13
9.18106e-13
8.53439e-13
7.89488e-13
7.26475e-13
6.6434e-13
6.0333e-13
5.43718e-13
4.85745e-13
4.2961e-13
3.75519e-13
3.23692e-13
2.74363e-13
2.27795e-13
1.84286e-13
1.44187e-13
1.07927e-13
7.6036e-14
4.91623e-14
2.80312e-14
1.3234e-14
4.70538e-15
1.1162e-15
1.53303e-16
9.28876e-18
2.28479e-19
2.66254e-12
2.65895e-12
2.65184e-12
2.64121e-12
2.62708e-12
2.60948e-12
2.58847e-12
2.56409e-12
2.53641e-12
2.5055e-12
2.47144e-12
2.43431e-12
2.39422e-12
2.35127e-12
2.30558e-12
2.25725e-12
2.20643e-12
2.15325e-12
2.09784e-12
2.04035e-12
1.98094e-12
1.91975e-12
1.85696e-12
1.79273e-12
1.72721e-12
1.6606e-12
1.59305e-12
1.52473e-12
1.45583e-12
1.38649e-12
1.31709e-12
1.24758e-12
1.17796e-12
1.10843e-12
1.03922e-12
9.70514e-13
9.02386e-13
8.35037e-13
7.68671e-13
7.03243e-13
6.39006e-13
5.76232e-13
5.1522e-13
4.56174e-13
3.993e-13
3.44817e-13
2.92955e-13
2.43971e-13
1.98155e-13
1.55852e-13
1.17479e-13
8.35513e-14
5.47157e-14
3.17315e-14
1.53004e-14
5.51469e-15
1.30011e-15
1.73214e-16
1.03073e-17
2.53493e-19
2.82362e-12
2.81979e-12
2.81219e-12
2.80081e-12
2.7857e-12
2.76688e-12
2.74441e-12
2.71834e-12
2.68873e-12
2.65567e-12
2.61925e-12
2.57956e-12
2.53671e-12
2.49082e-12
2.44201e-12
2.3904e-12
2.33615e-12
2.2794e-12
2.2203e-12
2.15902e-12
2.09571e-12
2.03056e-12
1.96373e-12
1.89541e-12
1.82577e-12
1.75501e-12
1.68331e-12
1.61086e-12
1.53784e-12
1.46443e-12
1.39103e-12
1.31756e-12
1.24402e-12
1.17064e-12
1.09763e-12
1.02523e-12
9.5351e-13
8.82691e-13
8.12704e-13
7.43781e-13
6.76165e-13
6.1012e-13
5.45938e-13
4.83874e-13
4.24131e-13
3.6692e-13
3.12465e-13
2.61012e-13
2.12837e-13
1.68275e-13
1.27736e-13
9.17259e-14
6.08848e-14
3.59879e-14
1.78474e-14
6.53477e-15
1.53188e-15
1.9691e-16
1.14711e-17
2.8196e-19
2.99488e-12
2.99078e-12
2.98264e-12
2.97048e-12
2.95432e-12
2.9342e-12
2.91016e-12
2.88226e-12
2.85058e-12
2.8152e-12
2.77623e-12
2.73377e-12
2.68794e-12
2.63887e-12
2.58668e-12
2.53154e-12
2.47359e-12
2.41299e-12
2.34991e-12
2.28453e-12
2.21703e-12
2.1476e-12
2.07643e-12
2.00371e-12
1.92964e-12
1.85443e-12
1.77828e-12
1.70139e-12
1.62396e-12
1.54619e-12
1.4685e-12
1.39081e-12
1.31309e-12
1.2356e-12
1.15857e-12
1.08222e-12
1.00664e-12
9.32033e-13
8.58351e-13
7.85836e-13
7.14739e-13
6.4532e-13
5.77863e-13
5.1268e-13
4.49974e-13
3.89954e-13
3.32837e-13
2.7885e-13
2.28232e-13
1.81333e-13
1.38568e-13
1.00442e-13
6.75809e-14
4.07498e-14
2.07856e-14
7.74431e-15
1.80494e-15
2.21339e-16
1.24719e-17
3.02421e-19
3.17701e-12
3.17261e-12
3.16389e-12
3.15085e-12
3.13353e-12
3.11199e-12
3.08627e-12
3.05647e-12
3.02259e-12
2.98475e-12
2.94305e-12
2.89761e-12
2.84856e-12
2.79604e-12
2.74022e-12
2.68125e-12
2.6193e-12
2.55454e-12
2.48717e-12
2.41738e-12
2.34536e-12
2.27132e-12
2.19547e-12
2.11802e-12
2.03919e-12
1.9592e-12
1.87827e-12
1.79662e-12
1.71446e-12
1.63201e-12
1.54974e-12
1.46753e-12
1.38536e-12
1.3035e-12
1.2222e-12
1.14172e-12
1.06215e-12
9.8345e-13
9.05834e-13
8.29541e-13
7.54813e-13
6.81904e-13
6.11088e-13
5.42672e-13
4.76915e-13
4.14026e-13
3.54224e-13
2.97747e-13
2.44552e-13
1.95225e-13
1.50172e-13
1.09893e-13
7.50156e-14
4.62909e-14
2.42235e-14
9.17981e-15
2.13277e-15
2.47564e-16
1.34211e-17
3.19022e-19
3.37085e-12
3.36613e-12
3.35677e-12
3.34279e-12
3.3242e-12
3.30109e-12
3.27351e-12
3.24155e-12
3.2053e-12
3.16488e-12
3.1203e-12
3.0717e-12
3.01923e-12
2.96304e-12
2.9033e-12
2.84019e-12
2.77393e-12
2.70469e-12
2.63269e-12
2.55814e-12
2.48125e-12
2.40225e-12
2.32136e-12
2.23882e-12
2.15487e-12
2.06974e-12
1.98367e-12
1.8969e-12
1.80967e-12
1.7222e-12
1.63501e-12
1.54794e-12
1.46099e-12
1.37445e-12
1.2886e-12
1.20358e-12
1.11966e-12
1.03676e-12
9.55091e-13
8.74896e-13
7.96411e-13
7.19889e-13
6.456e-13
5.73838e-13
5.04924e-13
4.39062e-13
3.76471e-13
3.17385e-13
2.61658e-13
2.09859e-13
1.62482e-13
1.20038e-13
8.32342e-14
5.31402e-14
2.81821e-14
1.08203e-14
2.50045e-15
2.71513e-16
1.3945e-17
3.18684e-19
3.57734e-12
3.57228e-12
3.56222e-12
3.5472e-12
3.52726e-12
3.50245e-12
3.47285e-12
3.43857e-12
3.3997e-12
3.35637e-12
3.30872e-12
3.25675e-12
3.20063e-12
3.14053e-12
3.07663e-12
3.00912e-12
2.93822e-12
2.86416e-12
2.78717e-12
2.70749e-12
2.62536e-12
2.54101e-12
2.45471e-12
2.3667e-12
2.27724e-12
2.18659e-12
2.095e-12
2.00274e-12
1.91005e-12
1.81719e-12
1.7247e-12
1.6324e-12
1.54029e-12
1.44867e-12
1.35783e-12
1.26789e-12
1.17952e-12
1.09227e-12
1.00638e-12
9.22108e-13
8.39697e-13
7.59409e-13
6.81513e-13
6.06302e-13
5.34105e-13
4.65173e-13
3.9972e-13
3.37974e-13
2.79688e-13
2.2539e-13
1.75652e-13
1.30955e-13
9.19486e-14
5.96161e-14
3.22764e-14
1.26157e-14
2.90718e-15
2.94167e-16
1.43357e-17
3.10034e-19
3.79751e-12
3.79207e-12
3.78127e-12
3.76513e-12
3.74371e-12
3.71706e-12
3.68528e-12
3.64848e-12
3.60677e-12
3.56028e-12
3.50918e-12
3.45361e-12
3.3936e-12
3.32932e-12
3.26097e-12
3.18878e-12
3.11296e-12
3.03376e-12
2.95144e-12
2.86625e-12
2.77848e-12
2.6884e-12
2.59627e-12
2.50239e-12
2.40701e-12
2.31043e-12
2.21291e-12
2.11475e-12
2.01622e-12
1.91757e-12
1.81939e-12
1.72148e-12
1.62385e-12
1.52681e-12
1.4307e-12
1.33568e-12
1.24245e-12
1.15051e-12
1.0601e-12
9.7147e-13
8.8489e-13
8.00619e-13
7.1893e-13
6.40113e-13
5.64487e-13
4.92366e-13
4.2396e-13
3.59492e-13
2.98623e-13
2.41839e-13
1.89789e-13
1.42942e-13
1.01867e-13
6.70148e-14
3.69932e-14
1.47279e-14
3.38238e-15
3.1687e-16
1.46814e-17
2.971e-19
4.0325e-12
4.02666e-12
4.01506e-12
3.99772e-12
3.9747e-12
3.94608e-12
3.91195e-12
3.87243e-12
3.82766e-12
3.77777e-12
3.72295e-12
3.66335e-12
3.59919e-12
3.53046e-12
3.45739e-12
3.3802e-12
3.29914e-12
3.21448e-12
3.12648e-12
3.03543e-12
2.94162e-12
2.84538e-12
2.747e-12
2.6468e-12
2.54508e-12
2.44214e-12
2.33827e-12
2.23378e-12
2.12897e-12
2.0241e-12
1.9198e-12
1.81585e-12
1.71223e-12
1.6093e-12
1.50736e-12
1.40708e-12
1.30875e-12
1.21182e-12
1.11658e-12
1.02331e-12
9.32282e-13
8.4377e-13
7.58056e-13
6.75432e-13
5.96209e-13
5.20742e-13
4.4926e-13
3.81984e-13
3.18497e-13
2.59256e-13
2.04934e-13
1.56184e-13
1.13966e-13
7.5481e-14
4.23698e-14
1.72412e-14
3.95598e-15
3.6223e-16
1.57631e-17
2.94826e-19
4.28354e-12
4.27727e-12
4.26481e-12
4.24619e-12
4.22148e-12
4.19076e-12
4.15414e-12
4.11174e-12
4.0637e-12
4.01019e-12
3.95138e-12
3.88748e-12
3.8187e-12
3.74526e-12
3.66717e-12
3.58468e-12
3.49806e-12
3.40758e-12
3.31356e-12
3.21628e-12
3.11608e-12
3.01328e-12
2.90823e-12
2.80126e-12
2.69273e-12
2.58296e-12
2.47228e-12
2.361e-12
2.24944e-12
2.13791e-12
2.02705e-12
1.91662e-12
1.80663e-12
1.69746e-12
1.58947e-12
1.48337e-12
1.37942e-12
1.27706e-12
1.17658e-12
1.07827e-12
9.82432e-13
8.89342e-13
7.99294e-13
7.12587e-13
6.29534e-13
5.50479e-13
4.75723e-13
4.05478e-13
3.39249e-13
2.77447e-13
2.20658e-13
1.69579e-13
1.25082e-13
8.41718e-14
4.84178e-14
2.04661e-14
4.74462e-15
4.33843e-16
1.7943e-17
3.14283e-19
4.55195e-12
4.54522e-12
4.53186e-12
4.5119e-12
4.4854e-12
4.45246e-12
4.4132e-12
4.36774e-12
4.31626e-12
4.25892e-12
4.19591e-12
4.12746e-12
4.0538e-12
3.97516e-12
3.89181e-12
3.80376e-12
3.71128e-12
3.61469e-12
3.5143e-12
3.41044e-12
3.30347e-12
3.19373e-12
3.0816e-12
2.96745e-12
2.85166e-12
2.7346e-12
2.61663e-12
2.49808e-12
2.3793e-12
2.2606e-12
2.14267e-12
2.02522e-12
1.90828e-12
1.79223e-12
1.6779e-12
1.56561e-12
1.45563e-12
1.3474e-12
1.24124e-12
1.13746e-12
1.03637e-12
9.38292e-13
8.43518e-13
7.52364e-13
6.65148e-13
5.82211e-13
5.03921e-13
4.30497e-13
3.61392e-13
2.96966e-13
2.37711e-13
1.84331e-13
1.3758e-13
9.43188e-14
5.59193e-14
2.49093e-14
6.02836e-15
5.68797e-16
2.35187e-17
3.99895e-19
4.83927e-12
4.83207e-12
4.81777e-12
4.79641e-12
4.76805e-12
4.7328e-12
4.69078e-12
4.64214e-12
4.58705e-12
4.5257e-12
4.45829e-12
4.38506e-12
4.30625e-12
4.22213e-12
4.13298e-12
4.03911e-12
3.94051e-12
3.83752e-12
3.73047e-12
3.61973e-12
3.50566e-12
3.38867e-12
3.26915e-12
3.14749e-12
3.02409e-12
2.89934e-12
2.77365e-12
2.64737e-12
2.52087e-12
2.39451e-12
2.26899e-12
2.14403e-12
2.01969e-12
1.8964e-12
1.77504e-12
1.65592e-12
1.53933e-12
1.42467e-12
1.31227e-12
1.20248e-12
1.09562e-12
9.92026e-13
8.92027e-13
7.9595e-13
7.04126e-13
6.16902e-13
5.3466e-13
4.57707e-13
3.85518e-13
3.18357e-13
2.56615e-13
2.00929e-13
1.51976e-13
1.06506e-13
6.55672e-14
3.12961e-14
8.32335e-15
8.58814e-16
3.96172e-17
6.95299e-19
5.14708e-12
5.1394e-12
5.12415e-12
5.10135e-12
5.07109e-12
5.03348e-12
4.98865e-12
4.93676e-12
4.87799e-12
4.81253e-12
4.7406e-12
4.66246e-12
4.57835e-12
4.48856e-12
4.39339e-12
4.29316e-12
4.1882e-12
4.07852e-12
3.96448e-12
3.84647e-12
3.7249e-12
3.60018e-12
3.47291e-12
3.34346e-12
3.21221e-12
3.07955e-12
2.94587e-12
2.81155e-12
2.67699e-12
2.54254e-12
2.40895e-12
2.27589e-12
2.14343e-12
2.01259e-12
1.88374e-12
1.75723e-12
1.63339e-12
1.51162e-12
1.3923e-12
1.27581e-12
1.16249e-12
1.0527e-12
9.46793e-13
8.45116e-13
7.48013e-13
6.55832e-13
5.68929e-13
4.87634e-13
4.12126e-13
3.4191e-13
2.77396e-13
2.19155e-13
1.67895e-13
1.20374e-13
7.72842e-14
3.99821e-14
1.22451e-14
1.5136e-15
9.7347e-17
1.99971e-18
5.47696e-12
5.4688e-12
5.45259e-12
5.42836e-12
5.39621e-12
5.35624e-12
5.30861e-12
5.25347e-12
5.19101e-12
5.12145e-12
5.045e-12
4.96193e-12
4.87251e-12
4.77702e-12
4.67578e-12
4.5691e-12
4.45735e-12
4.34088e-12
4.21967e-12
4.09414e-12
3.96503e-12
3.83271e-12
3.69759e-12
3.56008e-12
3.4206e-12
3.27957e-12
3.13741e-12
2.99454e-12
2.85138e-12
2.70834e-12
2.5662e-12
2.42465e-12
2.28379e-12
2.14471e-12
2.00774e-12
1.87324e-12
1.74154e-12
1.61202e-12
1.48506e-12
1.36106e-12
1.24041e-12
1.12348e-12
1.01066e-12
9.02332e-13
7.9888e-13
7.00689e-13
6.08148e-13
5.21657e-13
4.41449e-13
3.66927e-13
2.98632e-13
2.37124e-13
1.83113e-13
1.33556e-13
8.88253e-14
4.95728e-14
1.82552e-14
3.19628e-15
3.65838e-16
1.01102e-17
5.83039e-12
5.82176e-12
5.8046e-12
5.77897e-12
5.74496e-12
5.70269e-12
5.65231e-12
5.59399e-12
5.52794e-12
5.45436e-12
5.3735e-12
5.28563e-12
5.19101e-12
5.08995e-12
4.98277e-12
4.86979e-12
4.75135e-12
4.62782e-12
4.49956e-12
4.3669e-12
4.23029e-12
4.0902e-12
3.94706e-12
3.80132e-12
3.65342e-12
3.50382e-12
3.35295e-12
3.20127e-12
3.04921e-12
2.89718e-12
2.74599e-12
2.59526e-12
2.44582e-12
2.29808e-12
2.15246e-12
2.00933e-12
1.86909e-12
1.73115e-12
1.59589e-12
1.46368e-12
1.33492e-12
1.21001e-12
1.08935e-12
9.73367e-13
8.6247e-13
7.57097e-13
6.57699e-13
5.64773e-13
4.78833e-13
3.98036e-13
3.24331e-13
2.58171e-13
2.00132e-13
1.47987e-13
1.01775e-13
6.16505e-14
2.90422e-14
8.56849e-15
1.77285e-15
7.60228e-17
6.21167e-12
6.20259e-12
6.18453e-12
6.15755e-12
6.12175e-12
6.07727e-12
6.02425e-12
5.96289e-12
5.89339e-12
5.81597e-12
5.7309e-12
5.63844e-12
5.53889e-12
5.43255e-12
5.31975e-12
5.20084e-12
5.07617e-12
4.94612e-12
4.81092e-12
4.67103e-12
4.52691e-12
4.37902e-12
4.22785e-12
4.0739e-12
3.91763e-12
3.75952e-12
3.60003e-12
3.43963e-12
3.27878e-12
3.11792e-12
2.95787e-12
2.79832e-12
2.64006e-12
2.48351e-12
2.32906e-12
2.17706e-12
2.02788e-12
1.88184e-12
1.73836e-12
1.59785e-12
1.46073e-12
1.32742e-12
1.19833e-12
1.0739e-12
9.54574e-13
8.40811e-13
7.33048e-13
6.31756e-13
5.37476e-13
4.50697e-13
3.70296e-13
2.97973e-13
2.34178e-13
1.79023e-13
1.30858e-13
8.97818e-14
5.52177e-14
2.91737e-14
9.1894e-15
5.20665e-16
6.62031e-12
6.61016e-12
6.59e-12
6.55988e-12
6.51991e-12
6.47026e-12
6.4111e-12
6.34265e-12
6.26515e-12
6.17886e-12
6.08407e-12
5.98111e-12
5.87031e-12
5.75201e-12
5.62661e-12
5.49448e-12
5.35605e-12
5.21149e-12
5.06131e-12
4.90602e-12
4.74616e-12
4.58226e-12
4.41489e-12
4.24461e-12
4.07199e-12
3.89759e-12
3.72192e-12
3.54552e-12
3.36889e-12
3.19252e-12
3.01725e-12
2.84351e-12
2.67149e-12
2.5017e-12
2.33459e-12
2.1706e-12
2.01014e-12
1.85245e-12
1.69804e-12
1.54738e-12
1.40095e-12
1.25922e-12
1.12266e-12
9.91776e-13
8.67074e-13
7.49151e-13
6.38746e-13
5.36649e-13
4.43458e-13
3.57516e-13
2.8086e-13
2.14166e-13
1.57818e-13
1.09509e-13
6.95568e-14
3.82993e-14
1.5976e-14
3.64324e-15
3.15897e-16
7.2185e-18
7.05227e-12
7.04091e-12
7.01833e-12
6.98459e-12
6.93985e-12
6.88427e-12
6.81808e-12
6.74153e-12
6.6549e-12
6.55851e-12
6.45271e-12
6.33786e-12
6.21435e-12
6.08261e-12
5.94306e-12
5.79617e-12
5.64204e-12
5.48126e-12
5.3144e-12
5.14207e-12
4.96488e-12
4.78347e-12
4.59848e-12
4.41056e-12
4.22038e-12
4.02859e-12
3.83582e-12
3.64266e-12
3.44973e-12
3.25757e-12
3.06709e-12
2.87876e-12
2.69287e-12
2.51001e-12
2.33066e-12
2.1553e-12
1.98309e-12
1.81462e-12
1.65048e-12
1.49122e-12
1.33744e-12
1.18968e-12
1.04855e-12
9.14648e-13
7.88594e-13
6.71053e-13
5.62709e-13
4.64145e-13
3.74103e-13
2.93246e-13
2.23431e-13
1.65416e-13
1.16509e-13
7.66865e-14
4.57548e-14
2.32806e-14
8.92199e-15
1.82354e-15
1.39345e-16
2.88283e-18
7.50886e-12
7.49621e-12
7.47103e-12
7.43343e-12
7.38357e-12
7.32166e-12
7.24796e-12
7.16278e-12
7.06645e-12
6.95935e-12
6.84188e-12
6.71449e-12
6.57762e-12
6.43175e-12
6.2774e-12
6.11458e-12
5.94393e-12
5.76613e-12
5.58185e-12
5.39179e-12
5.19664e-12
4.99714e-12
4.794e-12
4.58798e-12
4.37982e-12
4.17028e-12
3.96011e-12
3.75001e-12
3.54067e-12
3.33273e-12
3.12715e-12
2.92445e-12
2.72505e-12
2.5296e-12
2.33866e-12
2.15118e-12
1.96784e-12
1.78931e-12
1.61621e-12
1.44919e-12
1.28884e-12
1.1358e-12
9.90678e-13
8.54148e-13
7.26921e-13
6.09809e-13
5.0378e-13
4.07423e-13
3.21427e-13
2.46279e-13
1.83322e-13
1.32639e-13
9.10504e-14
5.81904e-14
3.34703e-14
1.62334e-14
5.90795e-15
1.12239e-15
7.70876e-17
1.39373e-18
7.99079e-12
7.97677e-12
7.94886e-12
7.90718e-12
7.85193e-12
7.78335e-12
7.70176e-12
7.60751e-12
7.50103e-12
7.38274e-12
7.25314e-12
7.11272e-12
6.96202e-12
6.80158e-12
6.63132e-12
6.45196e-12
6.26423e-12
6.0689e-12
5.86672e-12
5.65848e-12
5.44498e-12
5.22702e-12
5.00541e-12
4.78099e-12
4.55459e-12
4.32706e-12
4.09926e-12
3.87202e-12
3.64611e-12
3.42228e-12
3.20157e-12
2.98455e-12
2.77178e-12
2.56417e-12
2.36036e-12
2.1611e-12
1.9671e-12
1.77907e-12
1.59771e-12
1.42368e-12
1.25763e-12
1.10019e-12
9.52009e-13
8.13733e-13
6.86044e-13
5.69672e-13
4.6537e-13
3.71888e-13
2.89806e-13
2.19463e-13
1.61423e-13
1.15375e-13
7.80544e-14
4.90226e-14
2.76688e-14
1.32953e-14
4.86309e-15
9.54518e-16
6.55974e-17
1.20677e-18
8.49708e-12
8.48165e-12
8.45092e-12
8.40503e-12
8.3442e-12
8.26872e-12
8.17893e-12
8.07526e-12
7.95819e-12
7.82824e-12
7.68599e-12
7.53207e-12
7.36711e-12
7.19085e-12
7.00411e-12
6.80769e-12
6.60241e-12
6.38912e-12
6.16865e-12
5.94189e-12
5.7097e-12
5.47298e-12
5.23263e-12
4.98955e-12
4.74467e-12
4.49891e-12
4.25321e-12
4.00855e-12
3.76579e-12
3.52578e-12
3.28963e-12
3.0579e-12
2.83123e-12
2.61045e-12
2.3942e-12
2.18341e-12
1.97894e-12
1.78159e-12
1.5921e-12
1.41116e-12
1.23941e-12
1.07749e-12
9.26021e-13
7.85623e-13
6.5695e-13
5.40682e-13
4.37274e-13
3.4579e-13
2.66772e-13
2.00324e-13
1.46174e-13
1.03699e-13
6.95283e-14
4.32402e-14
2.41667e-14
1.15931e-14
4.27663e-15
8.77993e-16
6.14982e-17
1.09853e-18
9.02718e-12
9.01029e-12
8.97666e-12
8.92642e-12
8.85981e-12
8.77715e-12
8.67881e-12
8.5653e-12
8.43725e-12
8.2952e-12
8.13984e-12
7.97196e-12
7.79129e-12
7.59868e-12
7.39501e-12
7.18112e-12
6.95792e-12
6.72631e-12
6.48721e-12
6.24158e-12
5.99039e-12
5.73461e-12
5.47524e-12
5.21325e-12
4.94964e-12
4.68538e-12
4.42148e-12
4.15901e-12
3.89901e-12
3.64245e-12
3.39059e-12
3.14409e-12
2.90395e-12
2.66865e-12
2.43919e-12
2.2165e-12
2.00143e-12
1.79478e-12
1.59727e-12
1.40957e-12
1.2323e-12
1.06606e-12
9.11413e-13
7.6896e-13
6.39364e-13
5.23416e-13
4.20143e-13
3.30161e-13
2.53785e-13
1.90701e-13
1.3914e-13
9.83038e-14
6.54743e-14
4.04593e-14
2.25863e-14
1.09837e-14
4.18467e-15
9.21878e-16
6.8209e-17
1.27347e-18
9.58072e-12
9.56237e-12
9.52578e-12
9.4711e-12
9.39857e-12
9.30848e-12
9.20113e-12
9.07736e-12
8.93802e-12
8.78329e-12
8.61384e-12
8.43037e-12
8.23362e-12
8.02438e-12
7.8035e-12
7.5719e-12
7.33049e-12
7.08025e-12
6.82218e-12
6.55734e-12
6.28679e-12
6.01163e-12
5.73295e-12
5.45183e-12
5.16938e-12
4.88635e-12
4.6039e-12
4.32317e-12
4.0453e-12
3.77139e-12
3.50274e-12
3.2401e-12
2.9847e-12
2.73511e-12
2.49256e-12
2.25805e-12
2.03244e-12
1.81651e-12
1.61096e-12
1.41643e-12
1.23349e-12
1.06268e-12
9.04477e-13
7.59321e-13
6.27822e-13
5.10753e-13
4.07476e-13
3.1867e-13
2.4487e-13
1.86322e-13
1.36465e-13
9.54817e-14
6.31968e-14
3.90358e-14
2.20269e-14
1.09108e-14
4.33455e-15
1.07397e-15
9.29441e-17
2.01701e-18
1.01578e-11
1.01379e-11
1.00983e-11
1.00392e-11
9.96084e-12
9.86357e-12
9.74788e-12
9.61428e-12
9.46337e-12
9.29583e-12
9.11239e-12
8.91384e-12
8.70104e-12
8.47489e-12
8.23635e-12
7.98642e-12
7.72611e-12
7.45649e-12
7.17852e-12
6.89346e-12
6.60253e-12
6.30697e-12
6.00796e-12
5.70671e-12
5.40441e-12
5.1018e-12
4.80011e-12
4.50051e-12
4.20418e-12
3.91222e-12
3.6258e-12
3.34587e-12
3.07315e-12
2.80844e-12
2.55254e-12
2.30619e-12
2.07003e-12
1.84481e-12
1.63121e-12
1.42982e-12
1.24122e-12
1.06588e-12
9.04219e-13
7.56164e-13
6.22417e-13
5.03596e-13
3.99997e-13
3.11733e-13
2.38761e-13
1.80978e-13
1.31685e-13
9.12467e-14
5.96427e-14
3.63277e-14
2.02309e-14
9.93939e-15
3.96593e-15
1.01475e-15
9.18127e-17
2.16551e-18
1.07625e-11
1.07411e-11
1.06983e-11
1.06344e-11
1.05497e-11
1.04447e-11
1.03197e-11
1.01754e-11
1.00125e-11
9.83168e-12
9.63375e-12
9.41962e-12
9.19025e-12
8.94665e-12
8.68989e-12
8.42108e-12
8.14137e-12
7.85157e-12
7.55299e-12
7.24697e-12
6.9349e-12
6.61818e-12
6.29812e-12
5.97606e-12
5.65329e-12
5.33061e-12
5.00926e-12
4.69051e-12
4.37558e-12
4.0657e-12
3.7621e-12
3.46579e-12
3.17759e-12
2.8984e-12
2.62903e-12
2.37024e-12
2.12263e-12
1.88708e-12
1.66424e-12
1.45473e-12
1.25913e-12
1.07799e-12
9.10936e-13
7.5864e-13
6.21752e-13
5.00848e-13
3.96143e-13
3.07698e-13
2.35195e-13
1.77256e-13
1.27803e-13
8.75653e-14
5.65117e-14
3.39365e-14
1.86178e-14
9.02693e-15
3.5929e-15
9.54933e-16
9.15011e-17
2.27345e-18
1.13939e-11
1.13708e-11
1.13246e-11
1.12558e-11
1.11645e-11
1.10513e-11
1.09166e-11
1.07612e-11
1.05857e-11
1.0391e-11
1.0178e-11
9.94766e-12
9.70105e-12
9.43931e-12
9.16362e-12
8.8752e-12
8.57526e-12
8.26462e-12
7.94474e-12
7.61708e-12
7.28316e-12
6.9445e-12
6.60261e-12
6.25893e-12
5.91482e-12
5.57163e-12
5.23013e-12
4.8917e-12
4.55767e-12
4.22935e-12
3.9081e-12
3.59498e-12
3.29092e-12
2.99685e-12
2.71366e-12
2.44178e-12
2.18214e-12
1.93562e-12
1.70291e-12
1.48464e-12
1.28136e-12
1.09361e-12
9.20994e-13
7.64225e-13
6.23971e-13
5.00745e-13
3.94822e-13
3.06506e-13
2.36286e-13
1.75733e-13
1.25154e-13
8.46279e-14
5.38013e-14
3.17774e-14
1.71423e-14
8.19812e-15
3.25193e-15
8.81909e-16
8.76453e-17
2.32718e-18
1.2053e-11
1.20281e-11
1.19785e-11
1.19044e-11
1.18062e-11
1.16844e-11
1.15397e-11
1.13726e-11
1.1184e-11
1.09748e-11
1.0746e-11
1.04987e-11
1.02341e-11
9.95345e-12
9.65807e-12
9.34943e-12
9.0282e-12
8.69581e-12
8.35378e-12
8.00369e-12
7.64715e-12
7.28581e-12
6.92132e-12
6.55531e-12
6.18928e-12
5.82468e-12
5.46222e-12
5.10336e-12
4.74955e-12
4.40217e-12
4.06263e-12
3.73208e-12
3.41154e-12
3.10199e-12
2.80433e-12
2.51894e-12
2.24679e-12
1.98882e-12
1.7458e-12
1.51833e-12
1.30695e-12
1.11217e-12
9.3359e-13
7.71946e-13
6.27917e-13
5.01894e-13
3.94071e-13
3.04623e-13
2.33923e-13
1.72906e-13
1.22106e-13
8.16931e-14
5.12749e-14
2.98314e-14
1.58223e-14
7.4433e-15
2.92843e-15
8.15026e-16
8.76989e-17
2.48573e-18
1.27416e-11
1.27148e-11
1.26615e-11
1.2582e-11
1.24765e-11
1.23458e-11
1.21904e-11
1.20111e-11
1.18087e-11
1.15844e-11
1.1339e-11
1.10739e-11
1.07904e-11
1.04897e-11
1.01733e-11
9.84285e-12
9.49987e-12
9.14501e-12
8.78001e-12
8.40661e-12
8.02657e-12
7.64167e-12
7.25369e-12
6.86442e-12
6.47557e-12
6.0887e-12
5.70445e-12
5.32439e-12
4.95005e-12
4.58289e-12
4.2244e-12
3.87575e-12
3.53812e-12
3.2125e-12
2.89973e-12
2.60021e-12
2.315e-12
2.0451e-12
1.79134e-12
1.55433e-12
1.33458e-12
1.13242e-12
9.476e-13
7.80898e-13
6.33013e-13
5.04224e-13
3.9462e-13
3.04121e-13
2.32662e-13
1.70894e-13
1.19606e-13
7.90722e-14
4.88844e-14
2.79294e-14
1.45268e-14
6.7111e-15
2.6111e-15
7.35452e-16
8.6016e-17
2.63393e-18
1.34617e-11
1.3433e-11
1.33758e-11
1.32904e-11
1.31774e-11
1.30372e-11
1.28706e-11
1.26784e-11
1.24616e-11
1.22213e-11
1.19586e-11
1.16747e-11
1.13712e-11
1.10495e-11
1.07112e-11
1.03579e-11
9.99158e-12
9.61296e-12
9.2238e-12
8.82596e-12
8.42132e-12
8.01181e-12
7.59932e-12
7.18577e-12
6.77307e-12
6.36297e-12
5.956e-12
5.55385e-12
5.15814e-12
4.77043e-12
4.39226e-12
4.02486e-12
3.66957e-12
3.3275e-12
2.99875e-12
2.68444e-12
2.38562e-12
2.10334e-12
1.83848e-12
1.59171e-12
1.36364e-12
1.15355e-12
9.62188e-13
7.90261e-13
6.38447e-13
5.06975e-13
3.95933e-13
3.04981e-13
2.32147e-13
1.6909e-13
1.17083e-13
7.6427e-14
4.65556e-14
2.61433e-14
1.3328e-14
6.02673e-15
2.30752e-15
6.58665e-16
8.57294e-17
2.83485e-18
1.42158e-11
1.4185e-11
1.41237e-11
1.40322e-11
1.39111e-11
1.37609e-11
1.35824e-11
1.33767e-11
1.31446e-11
1.28873e-11
1.26062e-11
1.23027e-11
1.19781e-11
1.16342e-11
1.12724e-11
1.08947e-11
1.0503e-11
1.00996e-11
9.68513e-12
9.26161e-12
8.83114e-12
8.39579e-12
7.95762e-12
7.51866e-12
7.08096e-12
6.64651e-12
6.21577e-12
5.79051e-12
5.37248e-12
4.96334e-12
4.56467e-12
4.17775e-12
3.80398e-12
3.44443e-12
3.09925e-12
2.76967e-12
2.45681e-12
2.16173e-12
1.88538e-12
1.62842e-12
1.39142e-12
1.17364e-12
9.75858e-13
7.98813e-13
6.43154e-13
5.09218e-13
3.97532e-13
3.09147e-13
2.32138e-13
1.67051e-13
1.14229e-13
7.34976e-14
4.40043e-14
2.42096e-14
1.20585e-14
5.32345e-15
1.99922e-15
5.71203e-16
8.01316e-17
2.89833e-18
1.50066e-11
1.49737e-11
1.4908e-11
1.481e-11
1.46802e-11
1.45194e-11
1.43283e-11
1.41081e-11
1.38597e-11
1.35846e-11
1.3284e-11
1.29594e-11
1.26125e-11
1.22449e-11
1.18582e-11
1.14545e-11
1.10363e-11
1.0606e-11
1.01644e-11
9.7136e-12
9.25583e-12
8.79323e-12
8.32801e-12
7.86234e-12
7.39838e-12
6.9383e-12
6.48256e-12
6.03306e-12
5.59165e-12
5.16009e-12
4.74006e-12
4.33293e-12
3.94029e-12
3.56213e-12
3.19975e-12
2.85434e-12
2.52703e-12
2.21885e-12
1.93079e-12
1.66348e-12
1.41743e-12
1.19191e-12
9.87709e-13
8.05599e-13
6.46093e-13
5.09426e-13
3.95977e-13
3.06695e-13
2.28827e-13
1.63217e-13
1.10353e-13
7.00364e-14
4.12561e-14
2.22645e-14
1.08322e-14
4.65014e-15
1.69847e-15
4.81914e-16
7.30722e-17
2.91296e-18
1.58374e-11
1.58021e-11
1.57317e-11
1.56267e-11
1.54877e-11
1.53154e-11
1.51109e-11
1.48752e-11
1.46095e-11
1.43152e-11
1.39938e-11
1.36469e-11
1.32762e-11
1.28829e-11
1.24692e-11
1.20377e-11
1.15909e-11
1.11311e-11
1.06612e-11
1.01817e-11
9.69499e-12
9.20357e-12
8.70974e-12
8.21583e-12
7.72416e-12
7.23701e-12
6.75492e-12
6.2799e-12
5.81389e-12
5.35877e-12
4.91628e-12
4.48783e-12
4.07494e-12
3.67776e-12
3.29771e-12
2.93607e-12
2.59399e-12
2.27251e-12
1.97264e-12
1.69499e-12
1.43982e-12
1.20658e-12
9.96161e-13
8.0934e-13
6.46503e-13
5.0775e-13
3.93121e-13
3.02985e-13
2.243e-13
1.58273e-13
1.05532e-13
6.58352e-14
3.79984e-14
2.00164e-14
9.46153e-15
3.92902e-15
1.38791e-15
3.86664e-16
6.20051e-17
2.76405e-18
1.67113e-11
1.66735e-11
1.6598e-11
1.64855e-11
1.63366e-11
1.61521e-11
1.59331e-11
1.56808e-11
1.53964e-11
1.50815e-11
1.47378e-11
1.43671e-11
1.39701e-11
1.35491e-11
1.31066e-11
1.26453e-11
1.2168e-11
1.16774e-11
1.11764e-11
1.06659e-11
1.01484e-11
9.62631e-12
9.10208e-12
8.57818e-12
8.05709e-12
7.54126e-12
7.03126e-12
6.52926e-12
6.03732e-12
5.55738e-12
5.09135e-12
4.64093e-12
4.20637e-12
3.7892e-12
3.39081e-12
3.01246e-12
2.65529e-12
2.32035e-12
2.0087e-12
1.72116e-12
1.45656e-12
1.21571e-12
9.99407e-13
8.08437e-13
6.4308e-13
5.03395e-13
3.8903e-13
2.97596e-13
2.17765e-13
1.51433e-13
9.92427e-14
6.07034e-14
3.42464e-14
1.75581e-14
8.035e-15
3.2104e-15
1.08681e-15
2.94221e-16
4.95793e-17
2.53638e-18
1.76321e-11
1.75915e-11
1.75106e-11
1.73899e-11
1.72303e-11
1.70326e-11
1.6798e-11
1.65278e-11
1.62233e-11
1.58862e-11
1.55182e-11
1.51211e-11
1.46957e-11
1.42448e-11
1.37713e-11
1.3278e-11
1.27679e-11
1.22438e-11
1.17088e-11
1.11659e-11
1.06156e-11
1.00608e-11
9.50413e-12
8.94826e-12
8.39582e-12
7.84943e-12
7.30973e-12
6.77909e-12
6.25969e-12
5.75333e-12
5.26213e-12
4.78793e-12
4.33109e-12
3.89332e-12
3.47608e-12
3.08063e-12
2.70809e-12
2.3595e-12
2.03586e-12
1.73796e-12
1.46465e-12
1.21681e-12
9.95316e-13
8.01028e-13
6.34245e-13
4.95398e-13
3.85798e-13
2.89644e-13
2.08052e-13
1.41765e-13
9.07695e-14
5.40224e-14
2.95075e-14
1.45598e-14
6.36435e-15
2.40423e-15
7.59599e-16
1.91757e-16
3.22373e-17
1.92651e-18
1.86036e-11
1.856e-11
1.84731e-11
1.83437e-11
1.81725e-11
1.79605e-11
1.7709e-11
1.74194e-11
1.70933e-11
1.67323e-11
1.63383e-11
1.59117e-11
1.54552e-11
1.49719e-11
1.44647e-11
1.39368e-11
1.33915e-11
1.28317e-11
1.22609e-11
1.16823e-11
1.10965e-11
1.05065e-11
9.91508e-12
9.32501e-12
8.73903e-12
8.15992e-12
7.58841e-12
7.02709e-12
6.47832e-12
5.94411e-12
5.42677e-12
4.92698e-12
4.44665e-12
3.98744e-12
3.55077e-12
3.13785e-12
2.74978e-12
2.38755e-12
2.0521e-12
1.74394e-12
1.46223e-12
1.20797e-12
9.82111e-13
7.85442e-13
6.18253e-13
4.80501e-13
3.70452e-13
2.73971e-13
1.93009e-13
1.2841e-13
7.98537e-14
4.58586e-14
2.39942e-14
1.12469e-14
4.62264e-15
1.61767e-15
4.64377e-16
1.05175e-16
1.64729e-17
1.14107e-18
1.96382e-11
1.95913e-11
1.94979e-11
1.93588e-11
1.91748e-11
1.89471e-11
1.86771e-11
1.83663e-11
1.80164e-11
1.76295e-11
1.72051e-11
1.67461e-11
1.62556e-11
1.57367e-11
1.51928e-11
1.46272e-11
1.40433e-11
1.34447e-11
1.28349e-11
1.22173e-11
1.1593e-11
1.0965e-11
1.0336e-11
9.709e-12
9.08679e-12
8.47224e-12
7.86628e-12
7.27174e-12
6.69125e-12
6.12724e-12
5.58079e-12
5.0542e-12
4.54937e-12
4.06788e-12
3.6111e-12
3.18024e-12
2.77639e-12
2.40054e-12
2.05377e-12
1.73496e-12
1.44505e-12
1.18499e-12
9.55781e-13
7.58245e-13
5.93097e-13
4.61682e-13
3.47842e-13
2.50868e-13
1.7143e-13
1.09716e-13
6.48573e-14
3.48368e-14