/*--------------------------------*- C++ -*----------------------------------*\
| =========                 |                                                 |
| \\      /  F ield         | OpenFOAM: The Open Source CFD Toolbox           |
|  \\    /   O peration     | Version:  v1906                                 |
|   \\  /    A nd           | Web:      www.OpenFOAM.com                      |
|    \\/     M anipulation  |                                                 |
\*---------------------------------------------------------------------------*/
FoamFile
{
    version     2.0;
    format      ascii;
    class       volScalarField;
    location    "2.83";
    object      C2H6;
}
// * * * * * * * * * * * * * * * * * * * * * * * * * * * * * * * * * * * * * //

dimensions      [0 0 0 0 0 0 0];


internalField   nonuniform List<scalar> 
26400
(
1.0988e-09
1.09738e-09
1.09453e-09
1.09027e-09
1.0846e-09
1.07753e-09
1.06909e-09
1.0593e-09
1.04816e-09
1.03572e-09
1.02199e-09
1.00701e-09
9.9082e-10
9.73446e-10
9.54931e-10
9.35319e-10
9.14655e-10
8.92986e-10
8.70363e-10
8.46837e-10
8.22465e-10
7.97301e-10
7.71406e-10
7.44839e-10
7.17663e-10
6.89942e-10
6.61741e-10
6.33127e-10
6.04168e-10
5.74933e-10
5.45521e-10
5.16003e-10
4.86426e-10
4.56863e-10
4.27389e-10
3.9808e-10
3.69013e-10
3.40267e-10
3.1192e-10
2.84057e-10
2.56762e-10
2.30124e-10
2.04237e-10
1.79201e-10
1.55124e-10
1.32127e-10
1.10346e-10
8.99375e-11
7.10869e-11
5.40127e-11
3.89697e-11
2.62406e-11
1.60749e-11
8.65119e-12
3.90093e-12
1.34455e-12
3.27843e-13
4.85406e-14
3.06126e-15
7.38245e-17
1.15059e-09
1.1491e-09
1.14611e-09
1.14165e-09
1.13571e-09
1.12831e-09
1.11947e-09
1.10921e-09
1.09755e-09
1.08452e-09
1.07015e-09
1.05447e-09
1.03752e-09
1.01933e-09
9.99954e-10
9.79431e-10
9.5781e-10
9.35141e-10
9.11476e-10
8.86872e-10
8.61386e-10
8.35078e-10
8.08009e-10
7.80243e-10
7.51846e-10
7.22885e-10
6.93429e-10
6.63547e-10
6.33312e-10
6.02795e-10
5.72092e-10
5.41278e-10
5.10408e-10
4.79559e-10
4.48808e-10
4.18234e-10
3.87916e-10
3.57936e-10
3.28374e-10
2.99317e-10
2.70851e-10
2.43067e-10
2.16058e-10
1.89928e-10
1.64783e-10
1.40743e-10
1.17942e-10
9.65339e-11
7.66998e-11
5.86558e-11
4.26613e-11
2.89879e-11
1.79373e-11
9.74423e-12
4.41692e-12
1.52306e-12
3.68398e-13
5.39086e-14
3.3953e-15
8.25225e-17
1.21595e-09
1.21437e-09
1.2112e-09
1.20646e-09
1.20016e-09
1.19231e-09
1.18293e-09
1.17204e-09
1.15967e-09
1.14585e-09
1.13061e-09
1.11398e-09
1.09601e-09
1.07673e-09
1.0562e-09
1.03446e-09
1.01156e-09
9.87551e-10
9.625e-10
9.36461e-10
9.09498e-10
8.81673e-10
8.53054e-10
8.23709e-10
7.93707e-10
7.6312e-10
7.32023e-10
7.00489e-10
6.68594e-10
6.36415e-10
6.04046e-10
5.71564e-10
5.39037e-10
5.06544e-10
4.74167e-10
4.41988e-10
4.1009e-10
3.78559e-10
3.47478e-10
3.16934e-10
2.87019e-10
2.57825e-10
2.29448e-10
2.01991e-10
1.75562e-10
1.50282e-10
1.26282e-10
1.03716e-10
8.27606e-11
6.36311e-11
4.65865e-11
3.19079e-11
1.99254e-11
1.09241e-11
4.98554e-12
1.72521e-12
4.15152e-13
6.01289e-14
3.76667e-15
9.17006e-17
1.28733e-09
1.28564e-09
1.28227e-09
1.27722e-09
1.27051e-09
1.26214e-09
1.25216e-09
1.24056e-09
1.22739e-09
1.21268e-09
1.19646e-09
1.17876e-09
1.15964e-09
1.13914e-09
1.11731e-09
1.0942e-09
1.06986e-09
1.04436e-09
1.01776e-09
9.90119e-10
9.61508e-10
9.31995e-10
9.01653e-10
8.70554e-10
8.38774e-10
8.0639e-10
7.7348e-10
7.40126e-10
7.06406e-10
6.72405e-10
6.38212e-10
6.0391e-10
5.69577e-10
5.35298e-10
5.01159e-10
4.67247e-10
4.33648e-10
4.00449e-10
3.6774e-10
3.3561e-10
3.04153e-10
2.73463e-10
2.43639e-10
2.14784e-10
1.87009e-10
1.60432e-10
1.35187e-10
1.11421e-10
8.93113e-11
6.90645e-11
5.09335e-11
3.52031e-11
2.22216e-11
1.23222e-11
5.66926e-12
1.96799e-12
4.70098e-13
6.68108e-14
4.14245e-15
1.01405e-16
1.36339e-09
1.36159e-09
1.35799e-09
1.35261e-09
1.34544e-09
1.33652e-09
1.32587e-09
1.31351e-09
1.29947e-09
1.28379e-09
1.2665e-09
1.24765e-09
1.22728e-09
1.20545e-09
1.18221e-09
1.15761e-09
1.13172e-09
1.10461e-09
1.07633e-09
1.04696e-09
1.01657e-09
9.85238e-10
9.53039e-10
9.20054e-10
8.86363e-10
8.5205e-10
8.17198e-10
7.81894e-10
7.46223e-10
7.10275e-10
6.74136e-10
6.37894e-10
6.0164e-10
5.65464e-10
5.29457e-10
4.93708e-10
4.58308e-10
4.23349e-10
3.88923e-10
3.55122e-10
3.2204e-10
2.89777e-10
2.58432e-10
2.28111e-10
1.98925e-10
1.70992e-10
1.44445e-10
1.19432e-10
9.61242e-11
7.47297e-11
5.54768e-11
3.86695e-11
2.46674e-11
1.38416e-11
6.42787e-12
2.24432e-12
5.32061e-13
7.4355e-14
4.56143e-15
1.11976e-16
1.44408e-09
1.44216e-09
1.43832e-09
1.43257e-09
1.42492e-09
1.4154e-09
1.40403e-09
1.39084e-09
1.37586e-09
1.35912e-09
1.34069e-09
1.32059e-09
1.29888e-09
1.27561e-09
1.25085e-09
1.22466e-09
1.1971e-09
1.16824e-09
1.13816e-09
1.10694e-09
1.07464e-09
1.04136e-09
1.00717e-09
9.72171e-10
9.36437e-10
9.00063e-10
8.63139e-10
8.25757e-10
7.8801e-10
7.49993e-10
7.11788e-10
6.73489e-10
6.35201e-10
5.9702e-10
5.5904e-10
5.21356e-10
4.84061e-10
4.47253e-10
4.11026e-10
3.75475e-10
3.40699e-10
3.06799e-10
2.73876e-10
2.42037e-10
2.11393e-10
1.82064e-10
1.5418e-10
1.27888e-10
1.03357e-10
8.07842e-11
6.03926e-11
4.24817e-11
2.74143e-11
1.55887e-11
7.30679e-12
2.57732e-12
6.07041e-13
8.29465e-14
5.01154e-15
1.23072e-16
1.52964e-09
1.52759e-09
1.52348e-09
1.51734e-09
1.50917e-09
1.499e-09
1.48685e-09
1.47276e-09
1.45676e-09
1.4389e-09
1.41922e-09
1.39778e-09
1.37462e-09
1.34982e-09
1.32342e-09
1.29551e-09
1.26616e-09
1.23543e-09
1.20342e-09
1.1702e-09
1.13586e-09
1.10049e-09
1.06418e-09
1.02701e-09
9.89099e-10
9.50526e-10
9.11392e-10
8.71798e-10
8.31841e-10
7.91624e-10
7.51226e-10
7.10746e-10
6.70304e-10
6.30001e-10
5.89938e-10
5.50213e-10
5.10924e-10
4.72173e-10
4.34056e-10
3.96673e-10
3.60124e-10
3.2451e-10
2.89937e-10
2.56512e-10
2.24347e-10
1.93562e-10
1.64287e-10
1.36667e-10
1.10871e-10
8.7075e-11
6.55148e-11
4.64812e-11
3.03359e-11
1.74989e-11
8.33816e-12
2.97191e-12
6.9429e-13
9.19374e-14
5.45296e-15
1.33862e-16
1.62037e-09
1.61818e-09
1.61379e-09
1.60722e-09
1.59849e-09
1.58761e-09
1.57463e-09
1.55957e-09
1.54248e-09
1.5234e-09
1.50239e-09
1.47949e-09
1.45477e-09
1.4283e-09
1.40015e-09
1.37039e-09
1.33911e-09
1.30638e-09
1.27229e-09
1.23693e-09
1.2004e-09
1.16279e-09
1.1242e-09
1.08473e-09
1.04448e-09
1.00356e-09
9.6207e-10
9.20116e-10
8.77807e-10
8.3525e-10
7.92523e-10
7.49728e-10
7.07004e-10
6.64457e-10
6.22193e-10
5.80315e-10
5.38928e-10
4.98134e-10
4.58034e-10
4.18731e-10
3.80329e-10
3.42932e-10
3.06646e-10
2.71578e-10
2.37842e-10
2.05556e-10
1.74848e-10
1.45862e-10
1.18761e-10
9.37167e-11
7.0959e-11
5.07731e-11
3.35189e-11
1.96281e-11
9.52512e-12
3.44466e-12
7.99664e-13
1.02154e-13
5.93165e-15
1.45543e-16
1.71664e-09
1.7143e-09
1.7096e-09
1.70257e-09
1.69323e-09
1.68159e-09
1.66771e-09
1.65161e-09
1.63333e-09
1.61294e-09
1.59048e-09
1.56602e-09
1.53962e-09
1.51136e-09
1.48132e-09
1.44957e-09
1.41621e-09
1.38132e-09
1.34501e-09
1.30736e-09
1.26847e-09
1.22846e-09
1.18744e-09
1.1455e-09
1.10275e-09
1.05932e-09
1.01531e-09
9.70846e-10
9.2603e-10
8.80983e-10
8.35779e-10
7.90527e-10
7.45383e-10
7.00459e-10
6.55867e-10
6.11717e-10
5.68116e-10
5.25173e-10
4.82992e-10
4.41679e-10
4.0134e-10
3.62081e-10
3.24009e-10
2.87233e-10
2.51864e-10
2.18019e-10
1.85826e-10
1.55424e-10
1.26971e-10
1.00635e-10
7.66423e-11
5.5275e-11
3.68863e-11
2.19158e-11
1.08345e-11
3.98422e-12
9.19637e-13
1.12126e-13
6.29901e-15
1.52499e-16
1.81883e-09
1.81632e-09
1.81129e-09
1.80376e-09
1.79376e-09
1.78131e-09
1.76645e-09
1.74922e-09
1.72967e-09
1.70786e-09
1.68385e-09
1.6577e-09
1.62949e-09
1.59931e-09
1.56723e-09
1.53335e-09
1.49775e-09
1.46055e-09
1.42184e-09
1.38173e-09
1.34032e-09
1.29774e-09
1.2541e-09
1.20952e-09
1.16411e-09
1.11799e-09
1.0713e-09
1.02415e-09
9.76659e-10
9.2896e-10
8.8112e-10
8.33256e-10
7.85543e-10
7.38099e-10
6.91042e-10
6.4449e-10
5.98554e-10
5.53346e-10
5.08976e-10
4.65555e-10
4.2319e-10
3.8199e-10
3.42062e-10
3.03515e-10
2.6646e-10
2.31013e-10
1.97296e-10
1.65448e-10
1.35602e-10
1.07937e-10
8.26706e-11
6.00784e-11
4.05097e-11
2.44122e-11
1.22968e-11
4.60459e-12
1.06113e-12
1.22616e-13
6.63178e-15
1.57455e-16
1.92736e-09
1.92467e-09
1.91929e-09
1.91122e-09
1.90051e-09
1.88718e-09
1.87126e-09
1.85282e-09
1.8319e-09
1.80856e-09
1.78288e-09
1.75492e-09
1.72477e-09
1.69251e-09
1.65824e-09
1.62206e-09
1.58407e-09
1.54438e-09
1.5031e-09
1.46034e-09
1.41624e-09
1.37091e-09
1.32447e-09
1.27705e-09
1.22879e-09
1.17981e-09
1.13024e-09
1.08022e-09
1.02989e-09
9.79358e-10
9.2871e-10
8.78067e-10
8.27622e-10
7.77501e-10
7.2783e-10
6.78731e-10
6.30325e-10
5.82727e-10
5.36054e-10
4.90417e-10
4.45929e-10
4.02698e-10
3.60834e-10
3.20445e-10
2.81641e-10
2.44534e-10
2.09244e-10
1.75901e-10
1.44629e-10
1.15601e-10
8.90257e-11
6.51694e-11
4.43798e-11
2.71064e-11
1.39039e-11
5.30322e-12
1.21942e-12
1.32033e-13
6.77064e-15
1.54615e-16
2.04272e-09
2.03983e-09
2.03406e-09
2.02542e-09
2.01394e-09
1.99966e-09
1.98261e-09
1.96286e-09
1.94046e-09
1.91549e-09
1.888e-09
1.8581e-09
1.82586e-09
1.79138e-09
1.75476e-09
1.71612e-09
1.67556e-09
1.6332e-09
1.58916e-09
1.54358e-09
1.49658e-09
1.44829e-09
1.39886e-09
1.34841e-09
1.2971e-09
1.24505e-09
1.19242e-09
1.13934e-09
1.08596e-09
1.03241e-09
9.7877e-10
9.25162e-10
8.71805e-10
8.18834e-10
7.66382e-10
7.14578e-10
6.63552e-10
6.13424e-10
5.64314e-10
5.1634e-10
4.69618e-10
4.24259e-10
3.80372e-10
3.38067e-10
2.97452e-10
2.58635e-10
2.21731e-10
1.86861e-10
1.5414e-10
1.23726e-10
9.58151e-11
7.06609e-11
4.86018e-11
3.00872e-11
1.57068e-11
6.10271e-12
1.40022e-12
1.41348e-13
6.87908e-15
1.48679e-16
2.16543e-09
2.16234e-09
2.15616e-09
2.1469e-09
2.13459e-09
2.11929e-09
2.10103e-09
2.07988e-09
2.05589e-09
2.02915e-09
1.99974e-09
1.96774e-09
1.93326e-09
1.8964e-09
1.85727e-09
1.81598e-09
1.77267e-09
1.72745e-09
1.68047e-09
1.63186e-09
1.58177e-09
1.53033e-09
1.47769e-09
1.42401e-09
1.36943e-09
1.31411e-09
1.25819e-09
1.20185e-09
1.14521e-09
1.08844e-09
1.0316e-09
9.74823e-10
9.18356e-10
8.62343e-10
8.06924e-10
7.52236e-10
6.98421e-10
6.456e-10
5.93902e-10
5.43449e-10
4.94361e-10
4.46753e-10
4.00738e-10
3.56425e-10
3.13921e-10
2.73331e-10
2.34763e-10
1.9833e-10
1.64134e-10
1.32316e-10
1.03054e-10
7.65806e-11
5.32186e-11
3.34157e-11
1.77729e-11
7.04203e-12
1.61176e-12
1.5072e-13
6.97628e-15
1.41059e-16
2.29608e-09
2.29278e-09
2.28615e-09
2.27623e-09
2.26305e-09
2.24666e-09
2.2271e-09
2.20445e-09
2.17878e-09
2.15016e-09
2.11868e-09
2.08446e-09
2.04758e-09
2.00818e-09
1.96636e-09
1.92225e-09
1.876e-09
1.82773e-09
1.7776e-09
1.72576e-09
1.67235e-09
1.61754e-09
1.56148e-09
1.50434e-09
1.44628e-09
1.38746e-09
1.32804e-09
1.2682e-09
1.20809e-09
1.14788e-09
1.08762e-09
1.02745e-09
9.67655e-10
9.08384e-10
8.49788e-10
7.92017e-10
7.35215e-10
6.79513e-10
6.25046e-10
5.71943e-10
5.20331e-10
4.70331e-10
4.22059e-10
3.75624e-10
3.31134e-10
2.88692e-10
2.484e-10
2.10362e-10
1.74666e-10
1.41433e-10
1.10814e-10
8.30154e-11
5.83294e-11
3.71628e-11
2.01594e-11
8.16667e-12
1.86934e-12
1.71011e-13
7.43993e-15
1.38834e-16
2.43532e-09
2.43178e-09
2.42468e-09
2.41406e-09
2.39996e-09
2.38241e-09
2.36149e-09
2.33726e-09
2.30979e-09
2.27918e-09
2.24553e-09
2.20894e-09
2.16953e-09
2.12742e-09
2.08275e-09
2.03565e-09
1.98627e-09
1.93477e-09
1.88129e-09
1.826e-09
1.76907e-09
1.71067e-09
1.65097e-09
1.59013e-09
1.52835e-09
1.46579e-09
1.40264e-09
1.33906e-09
1.27523e-09
1.21134e-09
1.14741e-09
1.0836e-09
1.02024e-09
9.57473e-10
8.95467e-10
8.34381e-10
7.74366e-10
7.15564e-10
6.58117e-10
6.02164e-10
5.47837e-10
4.95264e-10
4.44565e-10
3.95855e-10
3.49244e-10
3.04834e-10
2.62725e-10
2.23012e-10
1.8577e-10
1.51102e-10
1.19129e-10
9.00174e-11
6.40135e-11
4.14745e-11
2.30265e-11
9.61027e-12
2.22864e-12
2.04051e-13
8.45278e-15
1.46772e-16
2.5838e-09
2.58002e-09
2.57243e-09
2.56108e-09
2.546e-09
2.52724e-09
2.50488e-09
2.47898e-09
2.44963e-09
2.41694e-09
2.381e-09
2.34194e-09
2.29987e-09
2.25494e-09
2.20728e-09
2.15704e-09
2.10438e-09
2.04946e-09
1.99245e-09
1.93353e-09
1.87287e-09
1.81067e-09
1.74709e-09
1.68235e-09
1.61661e-09
1.55007e-09
1.48293e-09
1.41537e-09
1.34758e-09
1.27974e-09
1.21189e-09
1.14419e-09
1.07698e-09
1.01046e-09
9.4478e-10
8.80119e-10
8.16636e-10
7.54479e-10
6.93803e-10
6.34755e-10
5.77477e-10
5.22104e-10
4.68766e-10
4.17583e-10
3.6867e-10
3.22133e-10
2.78072e-10
2.36579e-10
1.97718e-10
1.61573e-10
1.28238e-10
9.78326e-11
7.05415e-11
4.6643e-11
2.66862e-11
1.16382e-11
2.83056e-12
2.68402e-13
1.11567e-14
1.84781e-16
2.74234e-09
2.7383e-09
2.73021e-09
2.71809e-09
2.70199e-09
2.68198e-09
2.65812e-09
2.63049e-09
2.59918e-09
2.56431e-09
2.52599e-09
2.48433e-09
2.43949e-09
2.3916e-09
2.34082e-09
2.2873e-09
2.23122e-09
2.17275e-09
2.11207e-09
2.04937e-09
1.98483e-09
1.91866e-09
1.85105e-09
1.7822e-09
1.71231e-09
1.64158e-09
1.57022e-09
1.49842e-09
1.4264e-09
1.35436e-09
1.28229e-09
1.2104e-09
1.13907e-09
1.06848e-09
9.98834e-10
9.30299e-10
8.63052e-10
7.97249e-10
7.33052e-10
6.70618e-10
6.10101e-10
5.51646e-10
4.95395e-10
4.41478e-10
3.90018e-10
3.4113e-10
2.9492e-10
2.5148e-10
2.10874e-10
1.73171e-10
1.3844e-10
1.06756e-10
7.8232e-11
5.3029e-11
3.15492e-11
1.46656e-11
3.93659e-12
4.09778e-13
1.91035e-14
3.20198e-16
2.91175e-09
2.90745e-09
2.89884e-09
2.88594e-09
2.86881e-09
2.84751e-09
2.82212e-09
2.79272e-09
2.75942e-09
2.72233e-09
2.68156e-09
2.63726e-09
2.58956e-09
2.53863e-09
2.48463e-09
2.42773e-09
2.36811e-09
2.30595e-09
2.24145e-09
2.1748e-09
2.10622e-09
2.03591e-09
1.96409e-09
1.89096e-09
1.81674e-09
1.74165e-09
1.66591e-09
1.58972e-09
1.5133e-09
1.43685e-09
1.36036e-09
1.28404e-09
1.2083e-09
1.13337e-09
1.05943e-09
9.86677e-10
9.15297e-10
8.45468e-10
7.77369e-10
7.11168e-10
6.47029e-10
5.85111e-10
5.25565e-10
4.68538e-10
4.14164e-10
3.62573e-10
3.13877e-10
2.6818e-10
2.25566e-10
1.86083e-10
1.49789e-10
1.1673e-10
8.69609e-11
6.05382e-11
3.76795e-11
1.89544e-11
5.86327e-12
7.33228e-13
4.7803e-14
9.5078e-16
3.09283e-09
3.08828e-09
3.07914e-09
3.06546e-09
3.0473e-09
3.02473e-09
2.99781e-09
2.96665e-09
2.93135e-09
2.89203e-09
2.84882e-09
2.80186e-09
2.75131e-09
2.69732e-09
2.64008e-09
2.57977e-09
2.51657e-09
2.45068e-09
2.38231e-09
2.31166e-09
2.23895e-09
2.16441e-09
2.08826e-09
2.01072e-09
1.93202e-09
1.85239e-09
1.77205e-09
1.69124e-09
1.61018e-09
1.5291e-09
1.44794e-09
1.36692e-09
1.28654e-09
1.20701e-09
1.12852e-09
1.05127e-09
9.75462e-10
9.01266e-10
8.28869e-10
7.58453e-10
6.90199e-10
6.24281e-10
5.60868e-10
5.00124e-10
4.42208e-10
3.87267e-10
3.35441e-10
2.86859e-10
2.41628e-10
1.99811e-10
1.61499e-10
1.26751e-10
9.56e-11
6.80248e-11
4.40552e-11
2.39484e-11
8.84563e-12
1.57034e-12
1.81503e-13
4.99879e-15
3.28633e-09
3.28152e-09
3.27188e-09
3.25744e-09
3.23828e-09
3.21444e-09
3.18604e-09
3.15315e-09
3.11589e-09
3.07439e-09
3.02878e-09
2.97922e-09
2.92586e-09
2.86887e-09
2.80844e-09
2.74475e-09
2.67802e-09
2.60843e-09
2.53622e-09
2.4616e-09
2.38479e-09
2.30603e-09
2.22556e-09
2.1436e-09
2.06041e-09
1.97621e-09
1.89125e-09
1.80576e-09
1.71999e-09
1.63416e-09
1.54819e-09
1.46232e-09
1.37707e-09
1.29267e-09
1.20933e-09
1.12726e-09
1.04665e-09
9.67702e-10
8.90608e-10
8.1556e-10
7.42745e-10
6.72349e-10
6.04553e-10
5.39536e-10
4.7747e-10
4.18526e-10
3.62869e-10
3.10661e-10
2.62071e-10
2.17045e-10
1.759e-10
1.38747e-10
1.05659e-10
7.6635e-11
5.16015e-11
3.05698e-11
1.41832e-11
4.24798e-12
8.82222e-13
3.78613e-14
3.49452e-09
3.48947e-09
3.47935e-09
3.46419e-09
3.44406e-09
3.41903e-09
3.3892e-09
3.35466e-09
3.31553e-09
3.27195e-09
3.22404e-09
3.17198e-09
3.11592e-09
3.05604e-09
2.99254e-09
2.92561e-09
2.85546e-09
2.78231e-09
2.70638e-09
2.6279e-09
2.54711e-09
2.46424e-09
2.37955e-09
2.29329e-09
2.20569e-09
2.11703e-09
2.02754e-09
1.93748e-09
1.84711e-09
1.75667e-09
1.66606e-09
1.57544e-09
1.48542e-09
1.39624e-09
1.30811e-09
1.22123e-09
1.13583e-09
1.0521e-09
9.70235e-10
8.90425e-10
8.1286e-10
7.3773e-10
6.65222e-10
5.95523e-10
5.28826e-10
4.6532e-10
4.05177e-10
3.48574e-10
2.95723e-10
2.4685e-10
2.02011e-10
1.61614e-10
1.25824e-10
9.46554e-11
6.80334e-11
4.58991e-11
2.77853e-11
1.45247e-11
4.57528e-12
2.59191e-13
3.71693e-09
3.71131e-09
3.70003e-09
3.68315e-09
3.66073e-09
3.63287e-09
3.59965e-09
3.5612e-09
3.51765e-09
3.46915e-09
3.41586e-09
3.35797e-09
3.29565e-09
3.22913e-09
3.15861e-09
3.08433e-09
3.00652e-09
2.92544e-09
2.84133e-09
2.75448e-09
2.66514e-09
2.5736e-09
2.48013e-09
2.38503e-09
2.28858e-09
2.19106e-09
2.09277e-09
1.99399e-09
1.89502e-09
1.79615e-09
1.69725e-09
1.59852e-09
1.50066e-09
1.40391e-09
1.30853e-09
1.21475e-09
1.12281e-09
1.03293e-09
9.45338e-10
8.6025e-10
7.77878e-10
6.9843e-10
6.22113e-10
5.49133e-10
4.79708e-10
4.14084e-10
3.52569e-10
2.95476e-10
2.43052e-10
1.95195e-10
1.52406e-10
1.1487e-10
8.27137e-11
5.5981e-11
3.46574e-11
1.86734e-11
7.76563e-12
1.76638e-12
1.52952e-13
3.49312e-15
3.95124e-09
3.94497e-09
3.93238e-09
3.91354e-09
3.88852e-09
3.85742e-09
3.82035e-09
3.77745e-09
3.72888e-09
3.6748e-09
3.61541e-09
3.55092e-09
3.48155e-09
3.40754e-09
3.32915e-09
3.24664e-09
3.16028e-09
3.07038e-09
2.97723e-09
2.88114e-09
2.78242e-09
2.68139e-09
2.57839e-09
2.47374e-09
2.36776e-09
2.2608e-09
2.15319e-09
2.04525e-09
1.93731e-09
1.82971e-09
1.72234e-09
1.61543e-09
1.50973e-09
1.40555e-09
1.30316e-09
1.20285e-09
1.10486e-09
1.00946e-09
9.16926e-10
8.27504e-10
7.41452e-10
6.59024e-10
5.80476e-10
5.06065e-10
4.36052e-10
3.70697e-10
3.10253e-10
2.54948e-10
2.04729e-10
1.5969e-10
1.20444e-10
8.71499e-11
5.9813e-11
3.82982e-11
2.22686e-11
1.11519e-11
4.24115e-12
8.60715e-13
6.54709e-14
1.35185e-15
4.19798e-09
4.19103e-09
4.17706e-09
4.15614e-09
4.12837e-09
4.09386e-09
4.05273e-09
4.00513e-09
3.95126e-09
3.8913e-09
3.82548e-09
3.75405e-09
3.67726e-09
3.59539e-09
3.50874e-09
3.41762e-09
3.32234e-09
3.22326e-09
3.1207e-09
3.01503e-09
2.90661e-09
2.79581e-09
2.68301e-09
2.56857e-09
2.45288e-09
2.33632e-09
2.21927e-09
2.1021e-09
1.98519e-09
1.8689e-09
1.75314e-09
1.63817e-09
1.52484e-09
1.41347e-09
1.30437e-09
1.19783e-09
1.09415e-09
9.93634e-10
8.9656e-10
8.03209e-10
7.13858e-10
6.28782e-10
5.48258e-10
4.72568e-10
4.02005e-10
3.36874e-10
2.77497e-10
2.23843e-10
1.76015e-10
1.33957e-10
9.83071e-11
6.90358e-11
4.58887e-11
2.83978e-11
1.58939e-11
7.59823e-12
2.71996e-12
5.08715e-13
3.45658e-14
6.21902e-16
4.45733e-09
4.44967e-09
4.43427e-09
4.41122e-09
4.38061e-09
4.34257e-09
4.29724e-09
4.24478e-09
4.18541e-09
4.11935e-09
4.04687e-09
3.96825e-09
3.88379e-09
3.79381e-09
3.69864e-09
3.59865e-09
3.4942e-09
3.38568e-09
3.27349e-09
3.15803e-09
3.0397e-09
2.91894e-09
2.79617e-09
2.6718e-09
2.54628e-09
2.42002e-09
2.29346e-09
2.16701e-09
2.04111e-09
1.91616e-09
1.79205e-09
1.6691e-09
1.54824e-09
1.42981e-09
1.31415e-09
1.20159e-09
1.09246e-09
9.87084e-10
8.8577e-10
7.88819e-10
6.96527e-10
6.09184e-10
5.27078e-10
4.50496e-10
3.79724e-10
3.15044e-10
2.56731e-10
2.04624e-10
1.5874e-10
1.1892e-10
8.57772e-11
5.91028e-11
3.84696e-11
2.32722e-11
1.27365e-11
5.98299e-12
2.13275e-12
4.08194e-13
2.75704e-14
5.03252e-16
4.72885e-09
4.72047e-09
4.70361e-09
4.67837e-09
4.64486e-09
4.60321e-09
4.55356e-09
4.4961e-09
4.43104e-09
4.35866e-09
4.27927e-09
4.19322e-09
4.10084e-09
4.0025e-09
3.89858e-09
3.78948e-09
3.67564e-09
3.55747e-09
3.43542e-09
3.30996e-09
3.18154e-09
3.05064e-09
2.91773e-09
2.78329e-09
2.6478e-09
2.51173e-09
2.37557e-09
2.23978e-09
2.10483e-09
1.97117e-09
1.83869e-09
1.70777e-09
1.57937e-09
1.4539e-09
1.3317e-09
1.21314e-09
1.09857e-09
9.88333e-10
8.82747e-10
7.82126e-10
6.86773e-10
5.96982e-10
5.13042e-10
4.35234e-10
3.63837e-10
2.99117e-10
2.413e-10
1.90153e-10
1.4564e-10
1.07484e-10
7.63116e-11
5.17339e-11
3.3136e-11
1.97393e-11
1.06471e-11
4.93875e-12
1.75234e-12
3.45464e-13
2.34843e-14
4.13193e-16
5.01223e-09
5.0031e-09
4.98474e-09
4.95727e-09
4.92082e-09
4.87554e-09
4.82158e-09
4.75906e-09
4.68801e-09
4.609e-09
4.52243e-09
4.42868e-09
4.32814e-09
4.22121e-09
4.10831e-09
3.98989e-09
3.86642e-09
3.73838e-09
3.60627e-09
3.47059e-09
3.33187e-09
3.19062e-09
3.04739e-09
2.90269e-09
2.75707e-09
2.61104e-09
2.46514e-09
2.31988e-09
2.17577e-09
2.03331e-09
1.89235e-09
1.75335e-09
1.61737e-09
1.48478e-09
1.35599e-09
1.23139e-09
1.11134e-09
9.96203e-10
8.86311e-10
7.81986e-10
6.83534e-10
5.91245e-10
5.05402e-10
4.26277e-10
3.54144e-10
2.89285e-10
2.31533e-10
1.80924e-10
1.37341e-10
1.00425e-10
7.06062e-11
4.73417e-11
2.99503e-11
1.76182e-11
9.41151e-12
4.36209e-12
1.57211e-12
3.25286e-13
2.27838e-14
4.10624e-16
5.30736e-09
5.29736e-09
5.2774e-09
5.2476e-09
5.20813e-09
5.15927e-09
5.10136e-09
5.03309e-09
4.95502e-09
4.86887e-09
4.77484e-09
4.67321e-09
4.56435e-09
4.44866e-09
4.32662e-09
4.1987e-09
4.06542e-09
3.92732e-09
3.78495e-09
3.63887e-09
3.48965e-09
3.33789e-09
3.18416e-09
3.02905e-09
2.87314e-09
2.71702e-09
2.56125e-09
2.40641e-09
2.25307e-09
2.10177e-09
1.9524e-09
1.80526e-09
1.66158e-09
1.52176e-09
1.38626e-09
1.25547e-09
1.12979e-09
1.00958e-09
8.95199e-10
7.8696e-10
6.85168e-10
5.90107e-10
5.02038e-10
4.21196e-10
3.47824e-10
2.82192e-10
2.24109e-10
1.73605e-10
1.30463e-10
9.48055e-11
6.61214e-11
4.39294e-11
2.75348e-11
1.60597e-11
8.52523e-12
3.95006e-12
1.45325e-12
3.2722e-13
2.5411e-14
4.99105e-16
5.61255e-09
5.6018e-09
5.58014e-09
5.54772e-09
5.50469e-09
5.45125e-09
5.38763e-09
5.31406e-09
5.23092e-09
5.13861e-09
5.03754e-09
4.92814e-09
4.8109e-09
4.68631e-09
4.5549e-09
4.41723e-09
4.27388e-09
4.12544e-09
3.97253e-09
3.81576e-09
3.65578e-09
3.49322e-09
3.32872e-09
3.16293e-09
2.99648e-09
2.83e-09
2.66411e-09
2.49943e-09
2.33656e-09
2.17609e-09
2.01786e-09
1.86232e-09
1.7107e-09
1.56347e-09
1.42108e-09
1.28395e-09
1.15248e-09
1.02705e-09
9.08022e-10
7.95718e-10
6.90444e-10
5.92483e-10
5.0209e-10
4.19384e-10
3.44559e-10
2.77759e-10
2.19057e-10
1.68435e-10
1.25747e-10
9.06741e-11
6.26393e-11
4.11296e-11
2.54237e-11
1.46102e-11
7.65347e-12
3.52062e-12
1.30416e-12
3.04469e-13
2.47896e-14
5.30438e-16
5.93085e-09
5.91925e-09
5.89587e-09
5.86089e-09
5.81448e-09
5.75685e-09
5.68829e-09
5.60911e-09
5.51966e-09
5.42036e-09
5.31165e-09
5.19403e-09
5.06801e-09
4.93416e-09
4.79305e-09
4.64531e-09
4.49157e-09
4.33248e-09
4.16872e-09
4.00097e-09
3.82992e-09
3.65627e-09
3.48072e-09
3.30397e-09
3.1267e-09
2.9496e-09
2.77335e-09
2.59858e-09
2.42596e-09
2.25611e-09
2.08886e-09
1.9247e-09
1.76494e-09
1.61007e-09
1.46055e-09
1.31684e-09
1.17933e-09
1.04844e-09
9.24507e-10
8.07871e-10
6.98839e-10
5.97697e-10
5.04573e-10
4.19671e-10
3.43155e-10
2.75141e-10
2.15672e-10
1.64694e-10
1.22003e-10
8.7163e-11
5.95715e-11
3.86516e-11
2.35849e-11
1.33638e-11
6.89874e-12
3.13453e-12
1.16069e-12
2.82857e-13
2.44677e-14
5.52399e-16
6.26196e-09
6.24949e-09
6.22434e-09
6.18672e-09
6.13681e-09
6.07487e-09
6.00118e-09
5.9161e-09
5.82004e-09
5.71342e-09
5.59676e-09
5.47057e-09
5.33545e-09
5.19199e-09
5.04085e-09
4.8827e-09
4.71823e-09
4.54815e-09
4.37321e-09
4.19413e-09
4.01169e-09
3.82662e-09
3.6397e-09
3.45168e-09
3.26329e-09
3.07527e-09
2.88835e-09
2.70321e-09
2.52056e-09
2.34107e-09
2.16453e-09
1.99148e-09
1.82331e-09
1.66054e-09
1.50364e-09
1.35309e-09
1.20931e-09
1.07269e-09
9.43617e-10
8.22411e-10
7.09382e-10
6.04812e-10
5.08809e-10
4.21564e-10
3.43225e-10
2.7388e-10
2.1354e-10
1.6211e-10
1.19353e-10
8.45214e-11
5.71684e-11
3.66278e-11
2.20153e-11
1.22673e-11
6.22777e-12
2.79335e-12
1.03285e-12
2.57657e-13
2.31586e-14
5.5969e-16
6.60617e-09
6.59278e-09
6.5658e-09
6.52542e-09
6.47188e-09
6.40543e-09
6.3264e-09
6.23519e-09
6.13222e-09
6.018e-09
5.89305e-09
5.75797e-09
5.61339e-09
5.45998e-09
5.29843e-09
5.1295e-09
4.95392e-09
4.77248e-09
4.58597e-09
4.3952e-09
4.20098e-09
4.00414e-09
3.80548e-09
3.60582e-09
3.40596e-09
3.20668e-09
3.00875e-09
2.81292e-09
2.61992e-09
2.43047e-09
2.24435e-09
2.06212e-09
1.88526e-09
1.71431e-09
1.54978e-09
1.39214e-09
1.24184e-09
1.09929e-09
9.64847e-10
8.38861e-10
7.21629e-10
6.13426e-10
5.14343e-10
4.24559e-10
3.44202e-10
2.73338e-10
2.11943e-10
1.59878e-10
1.16842e-10
8.20163e-11
5.49007e-11
3.47563e-11
2.06076e-11
1.13059e-11
5.64289e-12
2.49085e-12
9.14903e-13
2.35149e-13
2.29546e-14
5.93077e-16
6.96419e-09
6.94985e-09
6.92094e-09
6.87768e-09
6.82032e-09
6.74916e-09
6.66455e-09
6.56692e-09
6.45675e-09
6.33458e-09
6.20099e-09
6.05664e-09
5.9022e-09
5.73841e-09
5.56603e-09
5.38587e-09
5.19874e-09
5.00549e-09
4.80697e-09
4.60406e-09
4.39764e-09
4.18858e-09
3.97776e-09
3.76605e-09
3.5543e-09
3.34336e-09
3.13403e-09
2.92712e-09
2.7234e-09
2.52364e-09
2.32761e-09
2.13587e-09
1.95001e-09
1.77059e-09
1.59814e-09
1.43316e-09
1.27609e-09
1.12737e-09
9.87362e-10
8.56412e-10
7.34816e-10
6.22827e-10
5.20533e-10
4.28106e-10
3.4566e-10
2.73233e-10
2.10762e-10
1.58046e-10
1.14701e-10
7.98352e-11
5.28891e-11
3.3054e-11
1.92901e-11
1.03879e-11
5.08412e-12
2.20514e-12
8.0216e-13
2.09247e-13
2.22722e-14
6.22818e-16
7.33704e-09
7.32169e-09
7.29074e-09
7.24445e-09
7.18309e-09
7.10697e-09
7.0165e-09
6.91213e-09
6.7944e-09
6.66388e-09
6.52124e-09
6.36716e-09
6.20239e-09
6.02774e-09
5.84403e-09
5.65212e-09
5.45293e-09
5.24734e-09
5.03629e-09
4.82072e-09
4.60157e-09
4.37979e-09
4.15631e-09
3.93206e-09
3.70797e-09
3.48491e-09
3.26375e-09
3.04533e-09
2.83049e-09
2.62003e-09
2.41371e-09
2.21211e-09
2.01692e-09
1.82873e-09
1.64808e-09
1.4755e-09
1.31145e-09
1.15636e-09
1.01061e-09
8.74555e-10
7.48501e-10
6.32563e-10
5.26938e-10
4.31778e-10
3.4717e-10
2.73129e-10
2.09557e-10
1.56199e-10
1.1251e-10
7.75942e-11
5.08458e-11
3.13749e-11
1.80423e-11
9.5504e-12
4.58224e-12
1.94617e-12
6.97545e-13
1.84996e-13
2.20133e-14
6.65904e-16
7.72588e-09
7.70946e-09
7.67636e-09
7.62687e-09
7.56126e-09
7.47991e-09
7.38324e-09
7.27176e-09
7.14604e-09
7.00673e-09
6.85453e-09
6.6902e-09
6.51456e-09
6.32847e-09
6.13283e-09
5.92858e-09
5.71669e-09
5.49815e-09
5.27395e-09
5.0451e-09
4.81263e-09
4.57753e-09
4.34082e-09
4.10348e-09
3.86649e-09
3.63079e-09
3.3973e-09
3.1669e-09
2.94046e-09
2.71884e-09
2.5018e-09
2.28995e-09
2.08507e-09
1.88778e-09
1.69865e-09
1.51822e-09
1.34696e-09
1.18531e-09
1.03366e-09
8.92345e-10
7.61687e-10
6.4178e-10
5.32815e-10
4.3493e-10
3.48196e-10
2.72603e-10
2.08044e-10
1.54287e-10
1.10183e-10
7.52427e-11
4.87298e-11
2.96428e-11
1.67508e-11
8.6847e-12
4.07084e-12
1.68865e-12
5.94359e-13
1.58179e-13
2.03632e-14
6.75123e-16
8.13207e-09
8.11451e-09
8.07913e-09
8.02622e-09
7.95611e-09
7.86919e-09
7.76594e-09
7.6469e-09
7.51271e-09
7.36407e-09
7.20175e-09
7.02656e-09
6.8394e-09
6.64121e-09
6.43294e-09
6.21564e-09
5.99033e-09
5.75811e-09
5.52004e-09
5.2772e-09
5.03068e-09
4.78158e-09
4.53097e-09
4.27989e-09
4.02939e-09
3.78046e-09
3.53407e-09
3.29113e-09
3.05256e-09
2.81926e-09
2.59102e-09
2.36848e-09
2.15353e-09
1.94682e-09
1.74893e-09
1.56042e-09
1.38176e-09
1.2134e-09
1.05572e-09
9.09078e-10
7.73765e-10
6.4987e-10
5.37576e-10
4.37009e-10
3.4821e-10
2.71136e-10
2.05633e-10
1.51399e-10
1.07178e-10
7.24245e-11
4.63272e-11
2.77798e-11
1.54407e-11
7.85231e-12
3.59537e-12
1.45049e-12
4.96857e-13
1.31608e-13
1.83914e-14
6.73415e-16
8.55711e-09
8.53834e-09
8.50051e-09
8.44395e-09
8.36902e-09
8.27616e-09
8.16588e-09
8.03878e-09
7.89556e-09
7.73697e-09
7.56385e-09
7.37709e-09
7.17767e-09
6.96658e-09
6.74489e-09
6.5137e-09
6.27415e-09
6.02739e-09
5.77461e-09
5.51694e-09
5.25557e-09
4.99166e-09
4.72636e-09
4.46079e-09
4.19606e-09
3.93323e-09
3.6733e-09
3.41722e-09
3.16593e-09
2.92031e-09
2.68025e-09
2.44652e-09
2.22111e-09
2.00464e-09
1.79772e-09
1.6009e-09
1.41466e-09
1.23946e-09
1.07567e-09
9.23655e-10
7.8368e-10
6.55835e-10
5.40305e-10
4.37196e-10
3.46524e-10
2.68203e-10
2.02008e-10
1.47523e-10
1.03409e-10
6.90459e-11
4.35249e-11
2.56438e-11
1.39629e-11
6.93056e-12
3.08313e-12
1.20347e-12
3.98998e-13
1.03974e-13
1.54279e-14
6.33225e-16
9.00266e-09
8.98257e-09
8.94211e-09
8.88164e-09
8.80154e-09
8.7023e-09
8.58448e-09
8.44874e-09
8.29583e-09
8.12658e-09
7.94189e-09
7.74276e-09
7.5302e-09
7.30532e-09
7.06927e-09
6.82325e-09
6.56849e-09
6.30623e-09
6.03775e-09
5.76429e-09
5.48711e-09
5.20746e-09
4.92656e-09
4.64563e-09
4.36584e-09
4.08833e-09
3.81417e-09
3.54436e-09
3.27976e-09
3.02089e-09
2.76816e-09
2.52276e-09
2.2865e-09
2.05996e-09
1.84373e-09
1.63838e-09
1.44439e-09
1.26223e-09
1.09229e-09
9.34949e-10
7.90322e-10
6.58627e-10
5.40025e-10
4.346e-10
3.42336e-10
2.63104e-10
1.96593e-10
1.42126e-10
9.84073e-11
6.47546e-11
4.01329e-11
2.31942e-11
1.23502e-11
5.96895e-12
2.57174e-12
9.6631e-13
3.07263e-13
7.79642e-14
1.22106e-14
5.76772e-16
9.4705e-09
9.44899e-09
9.40569e-09
9.34099e-09
9.25532e-09
9.1492e-09
9.02326e-09
8.87822e-09
8.71488e-09
8.53416e-09
8.33703e-09
8.12457e-09
7.89788e-09
7.65818e-09
7.40671e-09
7.14478e-09
6.8737e-09
6.59483e-09
6.30953e-09
6.01918e-09
5.72509e-09
5.42863e-09
5.13109e-09
4.83378e-09
4.53795e-09
4.24485e-09
3.95566e-09
3.67159e-09
3.39231e-09
3.11852e-09
2.85265e-09
2.59562e-09
2.34828e-09
2.11135e-09
1.88553e-09
1.67139e-09
1.46947e-09
1.28023e-09
1.10409e-09
9.41414e-10
7.92309e-10
6.56988e-10
5.356e-10
4.28214e-10
3.34784e-10
2.55148e-10
1.89027e-10
1.34781e-10
9.18287e-11
5.92765e-11
3.59119e-11
2.01995e-11
1.04147e-11
4.84486e-12
1.99421e-12
7.08582e-13
2.1033e-13
4.9814e-14
7.81182e-15
4.32753e-16
9.96253e-09
9.93948e-09
9.8931e-09
9.82382e-09
9.73213e-09
9.61858e-09
9.48387e-09
9.32878e-09
9.15418e-09
8.96107e-09
8.75052e-09
8.52365e-09
8.28172e-09
8.02603e-09
7.75794e-09
7.47885e-09
7.19021e-09
6.89346e-09
6.59009e-09
6.28158e-09
5.96935e-09
5.65485e-09
5.33949e-09
5.02464e-09
4.71165e-09
4.40181e-09
4.09637e-09
3.79657e-09
3.50208e-09
3.21378e-09
2.93431e-09
2.66455e-09
2.40536e-09
2.15751e-09
1.92167e-09
1.69847e-09
1.48843e-09
1.29204e-09
1.10972e-09
9.41802e-10
7.88416e-10
6.49766e-10
5.25978e-10
4.17095e-10
3.23033e-10
2.43527e-10
1.77977e-10
1.24786e-10
8.32935e-11
5.24591e-11
3.08514e-11
1.67382e-11
8.26603e-12
3.65393e-12
1.41531e-12
4.66467e-13
1.26052e-13
2.68541e-14
3.9363e-15
2.53949e-16
1.0485e-08
1.04603e-08
1.04105e-08
1.03362e-08
1.02379e-08
1.01162e-08
9.97186e-09
9.80575e-09
9.61881e-09
9.41213e-09
9.18684e-09
8.94421e-09
8.6856e-09
8.41243e-09
8.12617e-09
7.82835e-09
7.52054e-09
7.20431e-09
6.88126e-09
6.55299e-09
6.22105e-09
5.88699e-09
5.55233e-09
5.21852e-09
4.887e-09
4.55914e-09
4.23623e-09
3.91951e-09
3.60852e-09
3.30474e-09
3.01077e-09
2.7275e-09
2.4558e-09
2.19644e-09
1.95013e-09
1.71749e-09
1.49909e-09
1.29543e-09
1.10694e-09
9.33816e-10
7.76331e-10
6.34669e-10
5.0894e-10
3.99173e-10
3.0526e-10
2.26952e-10
1.62469e-10
1.1107e-10
7.18213e-11