/*--------------------------------*- C++ -*----------------------------------*\
| =========                 |                                                 |
| \\      /  F ield         | OpenFOAM: The Open Source CFD Toolbox           |
|  \\    /   O peration     | Version:  v1906                                 |
|   \\  /    A nd           | Web:      www.OpenFOAM.com                      |
|    \\/     M anipulation  |                                                 |
\*---------------------------------------------------------------------------*/
FoamFile
{
    version     2.0;
    format      ascii;
    class       volScalarField;
    location    "2.83";
    object      CH2;
}
// * * * * * * * * * * * * * * * * * * * * * * * * * * * * * * * * * * * * * //

dimensions      [0 0 0 0 0 0 0];


internalField   nonuniform List<scalar> 
26400
(
1.27107e-10
1.26958e-10
1.26658e-10
1.26209e-10
1.25611e-10
1.24866e-10
1.23976e-10
1.22943e-10
1.21768e-10
1.20455e-10
1.19006e-10
1.17426e-10
1.15717e-10
1.13883e-10
1.1193e-10
1.09862e-10
1.07683e-10
1.05399e-10
1.03016e-10
1.00538e-10
9.7972e-11
9.53234e-11
9.25979e-11
8.98009e-11
8.6938e-11
8.40143e-11
8.10342e-11
7.80021e-11
7.49212e-11
7.17941e-11
6.86129e-11
6.53477e-11
6.20392e-11
5.86937e-11
5.53177e-11
5.19172e-11
4.84984e-11
4.50692e-11
4.16377e-11
3.81786e-11
3.47365e-11
3.13276e-11
2.79694e-11
2.46806e-11
2.14814e-11
1.83932e-11
1.54398e-11
1.26476e-11
1.00465e-11
7.67132e-12
5.56157e-12
3.76106e-12
2.31271e-12
1.24678e-12
5.60162e-13
1.95724e-13
4.83635e-14
7.23868e-15
4.59392e-16
1.11176e-17
1.32873e-10
1.32717e-10
1.32404e-10
1.31935e-10
1.31312e-10
1.30535e-10
1.29606e-10
1.28527e-10
1.27302e-10
1.25931e-10
1.24419e-10
1.22769e-10
1.20986e-10
1.19073e-10
1.17035e-10
1.14877e-10
1.12605e-10
1.10225e-10
1.07742e-10
1.05162e-10
1.02493e-10
9.97396e-11
9.69095e-11
9.40088e-11
9.10435e-11
8.80197e-11
8.49426e-11
8.18171e-11
7.8647e-11
7.54353e-11
7.21765e-11
6.8811e-11
6.53783e-11
6.19075e-11
5.84055e-11
5.48785e-11
5.13217e-11
4.77538e-11
4.41843e-11
4.0558e-11
3.6937e-11
3.33493e-11
2.98142e-11
2.63518e-11
2.29831e-11
1.97301e-11
1.66167e-11
1.36688e-11
1.09158e-11
8.39144e-12
6.13536e-12
4.19246e-12
2.60966e-12
1.42548e-12
6.48106e-13
2.27866e-13
5.61729e-14
8.34531e-15
5.30191e-16
1.29497e-17
1.4016e-10
1.39995e-10
1.39664e-10
1.39169e-10
1.38511e-10
1.3769e-10
1.36709e-10
1.3557e-10
1.34274e-10
1.32826e-10
1.31227e-10
1.29483e-10
1.27598e-10
1.25575e-10
1.23421e-10
1.21141e-10
1.18742e-10
1.16228e-10
1.13608e-10
1.10889e-10
1.08077e-10
1.05181e-10
1.02207e-10
9.9164e-11
9.60586e-11
9.2898e-11
8.96889e-11
8.64372e-11
8.31481e-11
7.98255e-11
7.64677e-11
7.29815e-11
6.94018e-11
6.57654e-11
6.21022e-11
5.84196e-11
5.46776e-11
5.09275e-11
4.71814e-11
4.33519e-11
3.94984e-11
3.56822e-11
3.19248e-11
2.82477e-11
2.46728e-11
2.12225e-11
1.79206e-11
1.47925e-11
1.18668e-11
9.17649e-12
6.7604e-12
4.66434e-12
2.93872e-12
1.62898e-12
7.53404e-13
2.68412e-13
6.63591e-14
9.80927e-15
6.21512e-16
1.52293e-17
1.48135e-10
1.4796e-10
1.4761e-10
1.47086e-10
1.46389e-10
1.4552e-10
1.44481e-10
1.43273e-10
1.419e-10
1.40363e-10
1.38667e-10
1.36816e-10
1.34815e-10
1.32668e-10
1.30381e-10
1.27961e-10
1.25414e-10
1.22748e-10
1.1997e-10
1.1709e-10
1.14114e-10
1.11053e-10
1.07914e-10
1.04707e-10
1.01441e-10
9.81236e-11
9.47642e-11
9.137e-11
8.79477e-11
8.45031e-11
8.10393e-11
7.74292e-11
7.37043e-11
6.99002e-11
6.60596e-11
6.22117e-11
5.82824e-11
5.4323e-11
5.03798e-11
4.63325e-11
4.22384e-11
3.81695e-11
3.41704e-11
3.02634e-11
2.64704e-11
2.2814e-11
1.93172e-11
1.60045e-11
1.29028e-11
1.00434e-11
7.46357e-12
5.20869e-12
3.33134e-12
1.88374e-12
8.94482e-13
3.24182e-13
8.02614e-14
1.16956e-14
7.34983e-16
1.81302e-17
1.56651e-10
1.56466e-10
1.56097e-10
1.55543e-10
1.54806e-10
1.53887e-10
1.52786e-10
1.51506e-10
1.50049e-10
1.48418e-10
1.46617e-10
1.44649e-10
1.4252e-10
1.40235e-10
1.37801e-10
1.35226e-10
1.32516e-10
1.2968e-10
1.26726e-10
1.23666e-10
1.20507e-10
1.1726e-10
1.13937e-10
1.10546e-10
1.071e-10
1.03608e-10
1.00081e-10
9.65277e-11
9.29581e-11
8.93796e-11
8.58009e-11
8.20611e-11
7.81892e-11
7.42209e-11
7.01981e-11
6.61708e-11
6.20462e-11
5.78745e-11
5.37167e-11
4.94402e-11
4.50999e-11
4.07634e-11
3.65092e-11
3.2361e-11
2.83413e-11
2.44723e-11
2.0776e-11
1.72751e-11
1.39946e-11
1.09637e-11
8.21802e-12
5.80251e-12
3.77237e-12
2.18772e-12
1.08801e-12
4.01714e-13
9.90394e-14
1.41918e-14
8.82034e-16
2.18138e-17
1.65701e-10
1.65506e-10
1.65119e-10
1.64537e-10
1.63762e-10
1.62792e-10
1.61629e-10
1.60274e-10
1.5873e-10
1.56998e-10
1.55083e-10
1.52988e-10
1.50721e-10
1.48285e-10
1.4569e-10
1.42943e-10
1.40052e-10
1.37027e-10
1.33878e-10
1.30616e-10
1.27253e-10
1.238e-10
1.20269e-10
1.16674e-10
1.13026e-10
1.09337e-10
1.05622e-10
1.01891e-10
9.81556e-11
9.44269e-11
9.07198e-11
8.68393e-11
8.28123e-11
7.8676e-11
7.44729e-11
7.0253e-11
6.59262e-11
6.1541e-11
5.71561e-11
5.26436e-11
4.80574e-11
4.34621e-11
3.89383e-11
3.45408e-11
3.02909e-11
2.6209e-11
2.23148e-11
1.86284e-11
1.51715e-11
1.19701e-11
9.05784e-12
6.47894e-12
4.29167e-12
2.57013e-12
1.40431e-12
5.12435e-13
1.24069e-13
1.7275e-14
1.05445e-15
2.60526e-17
1.75296e-10
1.75095e-10
1.74695e-10
1.74092e-10
1.73284e-10
1.72268e-10
1.71045e-10
1.69615e-10
1.67979e-10
1.66142e-10
1.64105e-10
1.61874e-10
1.59455e-10
1.56855e-10
1.54081e-10
1.51144e-10
1.48052e-10
1.44816e-10
1.4145e-10
1.37964e-10
1.34372e-10
1.30687e-10
1.26925e-10
1.23099e-10
1.19224e-10
1.15315e-10
1.11387e-10
1.07455e-10
1.03532e-10
9.96323e-11
9.57785e-11
9.1741e-11
8.75448e-11
8.32292e-11
7.88379e-11
7.44211e-11
6.98913e-11
6.52924e-11
6.06712e-11
5.59143e-11
5.10779e-11
4.6225e-11
4.14301e-11
3.67822e-11
3.23027e-11
2.80104e-11
2.39222e-11
2.00539e-11
1.64225e-11
1.30495e-11
9.96811e-12
7.22271e-12
4.87234e-12
2.99642e-12
1.70814e-12
6.31137e-13
1.51808e-13
2.04953e-14
1.22839e-15
3.03438e-17
1.85437e-10
1.85236e-10
1.84837e-10
1.8424e-10
1.83416e-10
1.82366e-10
1.81087e-10
1.7958e-10
1.77851e-10
1.75902e-10
1.73736e-10
1.71357e-10
1.68772e-10
1.65989e-10
1.63018e-10
1.59869e-10
1.56553e-10
1.53083e-10
1.49472e-10
1.45735e-10
1.41886e-10
1.37942e-10
1.3392e-10
1.29834e-10
1.25704e-10
1.21547e-10
1.17379e-10
1.13218e-10
1.09082e-10
1.04987e-10
1.00965e-10
9.67496e-11
9.23664e-11
8.78573e-11
8.32697e-11
7.86577e-11
7.39434e-11
6.918e-11
6.42623e-11
5.92325e-11
5.41384e-11
4.90353e-11
4.39901e-11
3.90872e-11
3.43816e-11
2.9888e-11
2.56185e-11
2.15818e-11
1.77842e-11
1.42356e-11
1.09802e-11
8.0662e-12
5.55236e-12
3.51573e-12
2.08019e-12
7.82833e-13
1.87491e-13
2.44264e-14
1.43318e-15
3.53816e-17
1.96084e-10
1.95874e-10
1.95459e-10
1.94839e-10
1.94018e-10
1.93001e-10
1.91722e-10
1.90186e-10
1.88392e-10
1.86342e-10
1.84041e-10
1.81499e-10
1.78728e-10
1.75743e-10
1.72552e-10
1.69166e-10
1.65599e-10
1.61865e-10
1.5798e-10
1.53961e-10
1.49824e-10
1.45589e-10
1.41274e-10
1.36897e-10
1.3248e-10
1.28041e-10
1.23603e-10
1.19183e-10
1.14804e-10
1.10485e-10
1.06266e-10
1.01847e-10
9.72498e-11
9.25211e-11
8.77095e-11
8.28691e-11
7.7924e-11
7.2919e-11
6.77603e-11
6.24946e-11
5.717e-11
5.18396e-11
4.65655e-11
4.14245e-11
3.65082e-11
3.18321e-11
2.74067e-11
2.3232e-11
1.9285e-11
1.55305e-11
1.2089e-11
9.01013e-12
6.3473e-12
4.16071e-12
2.5388e-12
9.74722e-13
2.32161e-13
2.88311e-14
1.63534e-15
3.98121e-17
2.07323e-10
2.07097e-10
2.0665e-10
2.05983e-10
2.051e-10
2.04004e-10
2.02702e-10
2.01203e-10
1.99407e-10
1.97323e-10
1.94952e-10
1.92296e-10
1.89366e-10
1.86174e-10
1.82739e-10
1.79085e-10
1.75236e-10
1.71206e-10
1.67013e-10
1.62677e-10
1.58217e-10
1.53654e-10
1.49009e-10
1.44306e-10
1.39565e-10
1.3481e-10
1.30065e-10
1.25353e-10
1.20697e-10
1.16121e-10
1.11674e-10
1.07021e-10
1.02185e-10
9.72175e-11
9.21713e-11
8.71037e-11
8.196e-11
7.66587e-11
7.12363e-11
6.57303e-11
6.01815e-11
5.4637e-11
4.91535e-11
4.38022e-11
3.86778e-11
3.38355e-11
2.92958e-11
2.50814e-11
2.0903e-11
1.6917e-11
1.32923e-11
1.00722e-11
7.30824e-12
5.04051e-12
3.12878e-12
1.21845e-12
2.8824e-13
3.37886e-14
1.84122e-15
4.3901e-17
2.19266e-10
2.1902e-10
2.18533e-10
2.17809e-10
2.16849e-10
2.15658e-10
2.14243e-10
2.12609e-10
2.10763e-10
2.08715e-10
2.06331e-10
2.03614e-10
2.00575e-10
1.97227e-10
1.93586e-10
1.89675e-10
1.8552e-10
1.81154e-10
1.76614e-10
1.71921e-10
1.67097e-10
1.62166e-10
1.57153e-10
1.52082e-10
1.46979e-10
1.41869e-10
1.36779e-10
1.31734e-10
1.26763e-10
1.21891e-10
1.17177e-10
1.1225e-10
1.07136e-10
1.01895e-10
9.65939e-11
9.11967e-11
8.57801e-11
8.02404e-11
7.46003e-11
6.88892e-11
6.31427e-11
5.74039e-11
5.17256e-11
4.61746e-11
4.08381e-11
3.58126e-11
3.11212e-11
2.67896e-11
2.24748e-11
1.83207e-11
1.45534e-11
1.12347e-11
8.46348e-12
6.45401e-12
3.87423e-12
1.50743e-12
3.52227e-13
3.84943e-14
1.9844e-15
4.54538e-17
2.31998e-10
2.3173e-10
2.312e-10
2.30411e-10
2.29367e-10
2.28074e-10
2.26541e-10
2.24775e-10
2.22788e-10
2.20592e-10
2.18198e-10
2.15432e-10
2.12302e-10
2.08819e-10
2.04999e-10
2.00863e-10
1.96436e-10
1.91748e-10
1.86835e-10
1.81738e-10
1.76505e-10
1.71162e-10
1.65735e-10
1.60253e-10
1.54745e-10
1.49238e-10
1.43762e-10
1.38345e-10
1.33017e-10
1.27808e-10
1.22778e-10
1.1752e-10
1.12058e-10
1.0645e-10
1.00755e-10
9.49256e-11
8.93919e-11
8.37039e-11
7.78982e-11
7.20119e-11
6.60854e-11
6.01641e-11
5.43014e-11
4.85622e-11
4.30298e-11
3.78157e-11
3.29724e-11
2.853e-11
2.40986e-11
1.98125e-11
1.58918e-11
1.24499e-11
9.56143e-12
7.38924e-12
4.53468e-12
1.80103e-12
4.20262e-13
4.28091e-14
2.09424e-15
4.53959e-17
2.456e-10
2.45306e-10
2.44724e-10
2.43858e-10
2.42712e-10
2.41295e-10
2.39615e-10
2.37682e-10
2.3551e-10
2.33113e-10
2.30506e-10
2.27709e-10
2.24503e-10
2.209e-10
2.16917e-10
2.12573e-10
2.07894e-10
2.02908e-10
1.9765e-10
1.92162e-10
1.86488e-10
1.80681e-10
1.74792e-10
1.68853e-10
1.62894e-10
1.56947e-10
1.51043e-10
1.45214e-10
1.39491e-10
1.33906e-10
1.28526e-10
1.22909e-10
1.1708e-10
1.11106e-10
1.05063e-10
9.8938e-11
9.31733e-11
8.72717e-11
8.12612e-11
7.51753e-11
6.90528e-11
6.29388e-11
5.6886e-11
5.09584e-11
4.52364e-11
3.98261e-11
3.48276e-11
3.02765e-11
2.57425e-11
2.13569e-11
1.73276e-11
1.3843e-11
1.09424e-11
8.5118e-12
5.30831e-12
2.16291e-12
5.03112e-13
4.73963e-14
2.20222e-15
4.46392e-17
2.6017e-10
2.59845e-10
2.59204e-10
2.58249e-10
2.56986e-10
2.55423e-10
2.5357e-10
2.51439e-10
2.49044e-10
2.46402e-10
2.4353e-10
2.4045e-10
2.37184e-10
2.33475e-10
2.29338e-10
2.24794e-10
2.19868e-10
2.14591e-10
2.08998e-10
2.03131e-10
1.97034e-10
1.9076e-10
1.84367e-10
1.77918e-10
1.7146e-10
1.65027e-10
1.58652e-10
1.52369e-10
1.46209e-10
1.40206e-10
1.34429e-10
1.28394e-10
1.22121e-10
1.15668e-10
1.09094e-10
1.02839e-10
9.6929e-11
9.08535e-11
8.46524e-11
7.83671e-11
7.20419e-11
6.57257e-11
5.94736e-11
5.335e-11
4.74338e-11
4.18256e-11
3.66624e-11
3.19942e-11
2.73591e-11
2.2892e-11
1.88078e-11
1.54321e-11
1.30269e-11
9.83915e-12
6.1718e-12
2.63564e-12
6.05453e-13
5.53909e-14
2.4072e-15
4.50148e-17
2.75811e-10
2.75454e-10
2.74747e-10
2.73694e-10
2.72301e-10
2.70577e-10
2.68531e-10
2.66176e-10
2.63528e-10
2.60603e-10
2.57422e-10
2.54006e-10
2.50382e-10
2.46578e-10
2.42295e-10
2.37553e-10
2.3238e-10
2.26808e-10
2.20875e-10
2.14625e-10
2.08106e-10
2.01372e-10
1.94482e-10
1.87498e-10
1.8049e-10
1.73525e-10
1.66639e-10
1.59864e-10
1.53236e-10
1.46787e-10
1.40594e-10
1.34136e-10
1.2744e-10
1.20582e-10
1.1365e-10
1.07101e-10
1.00942e-10
9.46234e-11
8.8182e-11
8.1659e-11
7.51001e-11
6.85557e-11
6.20827e-11
5.57468e-11
4.96267e-11
4.38211e-11
3.84612e-11
3.36491e-11
2.88905e-11
2.4312e-11
2.01057e-11
1.66143e-11
1.41237e-11
1.08203e-11
6.9813e-12
3.16662e-12
7.28721e-13
6.61857e-14
2.72014e-15
4.75692e-17
2.9263e-10
2.92237e-10
2.91461e-10
2.90305e-10
2.88774e-10
2.86877e-10
2.84625e-10
2.82028e-10
2.79104e-10
2.75869e-10
2.72344e-10
2.68552e-10
2.64518e-10
2.60274e-10
2.55853e-10
2.50915e-10
2.45488e-10
2.39608e-10
2.33316e-10
2.26661e-10
2.19699e-10
2.12491e-10
2.051e-10
1.97592e-10
1.90036e-10
1.82502e-10
1.75063e-10
1.6776e-10
1.60623e-10
1.53683e-10
1.47016e-10
1.40054e-10
1.32816e-10
1.2536e-10
1.18242e-10
1.11486e-10
1.05114e-10
9.85585e-11
9.18666e-11
8.50867e-11
7.82698e-11
7.14708e-11
6.47499e-11
5.81748e-11
5.18252e-11
4.57988e-11
4.02222e-11
3.52479e-11
3.03663e-11
2.56967e-11
2.14095e-11
1.78028e-11
1.52263e-11
1.18467e-11
7.89212e-12
3.83278e-12
9.13569e-13
8.50514e-14
3.46381e-15
5.87791e-17
3.10735e-10
3.10308e-10
3.09462e-10
3.08201e-10
3.0653e-10
3.04457e-10
3.01992e-10
2.99147e-10
2.95937e-10
2.92376e-10
2.88486e-10
2.84287e-10
2.79806e-10
2.75071e-10
2.70118e-10
2.64984e-10
2.5929e-10
2.53074e-10
2.46383e-10
2.39275e-10
2.31816e-10
2.24085e-10
2.1617e-10
2.08144e-10
2.00072e-10
1.92013e-10
1.84029e-10
1.76186e-10
1.68531e-10
1.61091e-10
1.53948e-10
1.46503e-10
1.38792e-10
1.30912e-10
1.23434e-10
1.16358e-10
1.09693e-10
1.02841e-10
9.58488e-11
8.87684e-11
8.16535e-11
7.45616e-11
6.75551e-11
6.07028e-11
5.40843e-11
4.77965e-11
4.19653e-11
3.67681e-11
3.17637e-11
2.70224e-11
2.2679e-11
1.89836e-11
1.63348e-11
1.29283e-11
8.93924e-12
4.70619e-12
1.23013e-12
1.24355e-13
5.55434e-15
9.72442e-17
3.30229e-10
3.29767e-10
3.28854e-10
3.27491e-10
3.25685e-10
3.23442e-10
3.20772e-10
3.17685e-10
3.14194e-10
3.10314e-10
3.06061e-10
3.01453e-10
2.96514e-10
2.91267e-10
2.85743e-10
2.79976e-10
2.7401e-10
2.6742e-10
2.60255e-10
2.5258e-10
2.44474e-10
2.35994e-10
2.27493e-10
2.18979e-10
2.10471e-10
2.01995e-10
1.93586e-10
1.85281e-10
1.77116e-10
1.69132e-10
1.6142e-10
1.53339e-10
1.44911e-10
1.36811e-10
1.29067e-10
1.21705e-10
1.14745e-10
1.07574e-10
1.00251e-10
9.28353e-11
8.53849e-11
7.79609e-11
7.06266e-11
6.34501e-11
5.65062e-11
4.98804e-11
4.36746e-11
3.80176e-11
3.30373e-11
2.8273e-11
2.38835e-11
2.01026e-11
1.7359e-11
1.39549e-11
1.00292e-11
5.76445e-12
1.76583e-12
2.11138e-13
1.28665e-14
2.62889e-16
3.512e-10
3.50706e-10
3.49729e-10
3.48272e-10
3.46339e-10
3.43939e-10
3.4108e-10
3.37773e-10
3.34027e-10
3.29857e-10
3.25275e-10
3.20294e-10
3.14932e-10
3.09205e-10
3.03133e-10
2.96739e-10
2.90051e-10
2.83104e-10
2.75421e-10
2.67054e-10
2.58474e-10
2.4972e-10
2.40826e-10
2.31832e-10
2.22782e-10
2.13721e-10
2.04699e-10
1.95762e-10
1.86962e-10
1.78348e-10
1.70035e-10
1.61366e-10
1.52401e-10
1.4383e-10
1.35657e-10
1.27892e-10
1.20552e-10
1.13e-10
1.05298e-10
9.75025e-11
8.96738e-11
8.18729e-11
7.41645e-11
6.66182e-11
5.93104e-11
5.23276e-11
4.57713e-11
3.97676e-11
3.44851e-11
2.94979e-11
2.49411e-11
2.1011e-11
1.80576e-11
1.46177e-11
1.08121e-11
6.72259e-12
2.63785e-12
4.27118e-13
4.63067e-14
1.27252e-15
3.73728e-10
3.73203e-10
3.72164e-10
3.70617e-10
3.68566e-10
3.66021e-10
3.62991e-10
3.59488e-10
3.55524e-10
3.51111e-10
3.4626e-10
3.40983e-10
3.35289e-10
3.2919e-10
3.22691e-10
3.15801e-10
3.08524e-10
3.00862e-10
2.92812e-10
2.84262e-10
2.75297e-10
2.66006e-10
2.56484e-10
2.46809e-10
2.3704e-10
2.27235e-10
2.17452e-10
2.07743e-10
1.9816e-10
1.8875e-10
1.7962e-10
1.70044e-10
1.60759e-10
1.51803e-10
1.4321e-10
1.35014e-10
1.27255e-10
1.19318e-10
1.11238e-10
1.03061e-10
9.48403e-11
8.66367e-11
7.85151e-11
7.05464e-11
6.28075e-11
5.53837e-11
4.8371e-11
4.18827e-11
3.60588e-11
3.08027e-11
2.60046e-11
2.1821e-11
1.84959e-11
1.49914e-11
1.13463e-11
7.59172e-12
3.8958e-12
1.0821e-12
2.20499e-13
9.44603e-15
3.98083e-10
3.97524e-10
3.96421e-10
3.94779e-10
3.92606e-10
3.89915e-10
3.8672e-10
3.83036e-10
3.78877e-10
3.74261e-10
3.692e-10
3.63709e-10
3.57799e-10
3.5148e-10
3.44759e-10
3.37643e-10
3.30136e-10
3.2224e-10
3.13705e-10
3.04603e-10
2.95013e-10
2.85018e-10
2.7471e-10
2.64186e-10
2.53554e-10
2.42893e-10
2.32264e-10
2.21729e-10
2.1135e-10
2.01192e-10
1.91398e-10
1.81199e-10
1.71289e-10
1.61722e-10
1.52514e-10
1.43677e-10
1.35222e-10
1.27151e-10
1.18854e-10
1.10397e-10
1.01848e-10
9.32735e-11
8.47448e-11
7.63357e-11
6.81242e-11
6.01944e-11
5.26362e-11
4.55509e-11
3.90568e-11
3.32826e-11
2.81291e-11
2.35238e-11
1.95702e-11
1.63299e-11
1.3031e-11
9.73188e-12
6.47467e-12
3.61732e-12
1.14059e-12
6.4647e-14
4.24281e-10
4.23644e-10
4.22386e-10
4.20515e-10
4.18048e-10
4.15002e-10
4.114e-10
4.07265e-10
4.02621e-10
3.9749e-10
3.91894e-10
3.8585e-10
3.79375e-10
3.72477e-10
3.65165e-10
3.5744e-10
3.49302e-10
3.4035e-10
3.30668e-10
3.20345e-10
3.09474e-10
2.98152e-10
2.86484e-10
2.74577e-10
2.62547e-10
2.50517e-10
2.38572e-10
2.26769e-10
2.15163e-10
2.038e-10
1.92791e-10
1.82027e-10
1.71551e-10
1.61465e-10
1.51803e-10
1.4259e-10
1.33852e-10
1.24831e-10
1.15612e-10
1.06279e-10
9.69132e-11
8.75958e-11
7.84082e-11
6.94347e-11
6.07661e-11
5.25061e-11
4.47824e-11
3.77488e-11
3.15933e-11
2.6199e-11
2.14473e-11
1.75354e-11
1.46729e-11
1.15752e-11
8.35782e-12
5.18261e-12
2.31096e-12
5.27341e-13
4.56665e-14
1.04253e-15
4.5215e-10
4.51408e-10
4.49945e-10
4.47775e-10
4.44921e-10
4.41413e-10
4.37288e-10
4.32583e-10
4.27338e-10
4.21587e-10
4.15363e-10
4.08691e-10
4.01592e-10
3.94077e-10
3.86149e-10
3.77805e-10
3.68467e-10
3.58237e-10
3.4722e-10
3.3552e-10
3.23243e-10
3.10499e-10
2.97402e-10
2.8407e-10
2.70629e-10
2.57214e-10
2.43969e-10
2.30965e-10
2.18265e-10
2.05925e-10
1.94063e-10
1.82544e-10
1.71415e-10
1.608e-10
1.50723e-10
1.41194e-10
1.3136e-10
1.21325e-10
1.11189e-10
1.0105e-10
9.10029e-11
8.11414e-11
7.15595e-11
6.2354e-11
5.36289e-11
4.54996e-11
3.80982e-11
3.15772e-11
2.58204e-11
2.09666e-11
1.70147e-11
1.43813e-11
1.16421e-11
8.82865e-12
6.04195e-12
3.44665e-12
1.33935e-12
2.75973e-13
2.11745e-14
4.38747e-16
4.81906e-10
4.81032e-10
4.79308e-10
4.76756e-10
4.73406e-10
4.69307e-10
4.64515e-10
4.59102e-10
4.53139e-10
4.46673e-10
4.39748e-10
4.32408e-10
4.24682e-10
4.16582e-10
4.08105e-10
3.9846e-10
3.87772e-10
3.76161e-10
3.63743e-10
3.50632e-10
3.36943e-10
3.22788e-10
3.08289e-10
2.93567e-10
2.78757e-10
2.64001e-10
2.49456e-10
2.35266e-10
2.215e-10
2.08227e-10
1.9558e-10
1.83374e-10
1.71686e-10
1.60666e-10
1.50342e-10
1.39684e-10
1.28821e-10
1.17871e-10
1.06946e-10
9.61523e-11
8.55885e-11
7.53513e-11
6.55364e-11
5.62437e-11
4.75843e-11
3.96918e-11
3.27403e-11
2.65769e-11
2.12727e-11
1.69419e-11
1.35958e-11
1.16784e-11
9.4773e-12
7.11317e-12
4.74382e-12
2.56719e-12
9.35181e-13
1.77471e-13
1.21903e-14
2.20529e-16
5.12419e-10
5.11439e-10
5.09505e-10
5.06637e-10
5.02869e-10
4.9825e-10
4.9284e-10
4.86713e-10
4.79955e-10
4.72659e-10
4.64924e-10
4.56856e-10
4.48515e-10
4.39911e-10
4.29999e-10
4.1893e-10
4.06837e-10
3.93841e-10
3.80059e-10
3.656e-10
3.50577e-10
3.35101e-10
3.19291e-10
3.03271e-10
2.87172e-10
2.71142e-10
2.55342e-10
2.3996e-10
2.25121e-10
2.10906e-10
1.97473e-10
1.84595e-10
1.72405e-10
1.6115e-10
1.49599e-10
1.37868e-10
1.26079e-10
1.14353e-10
1.02805e-10
9.1543e-11
8.0665e-11
7.02642e-11
6.04303e-11
5.12546e-11
4.28376e-11
3.52997e-11
2.88e-11
2.31126e-11
1.82914e-11
1.4437e-11
1.15796e-11
1.00999e-11
8.23153e-12
6.1469e-12
4.04927e-12
2.15036e-12
7.74261e-13
1.5068e-13
1.03934e-14
1.92444e-16
5.42429e-10
5.41358e-10
5.39239e-10
5.3609e-10
5.31942e-10
5.26844e-10
5.20866e-10
5.14101e-10
5.06666e-10
4.98679e-10
4.90265e-10
4.81551e-10
4.72654e-10
4.62431e-10
4.51029e-10
4.38571e-10
4.25166e-10
4.10912e-10
3.95906e-10
3.80245e-10
3.64034e-10
3.47383e-10
3.30403e-10
3.13216e-10
2.95945e-10
2.78728e-10
2.61727e-10
2.45134e-10
2.29169e-10
2.1393e-10
1.99596e-10
1.85854e-10
1.72834e-10
1.60716e-10
1.48249e-10
1.35651e-10
1.23103e-10
1.10757e-10
9.87414e-11
8.71649e-11
7.61219e-11
6.56953e-11
5.5962e-11
4.69991e-11
3.88922e-11
3.17433e-11
2.56756e-11
2.04116e-11
1.60038e-11
1.25427e-11
1.00408e-11
8.90519e-12
7.24395e-12
5.36131e-12
3.50014e-12
1.84593e-12
6.55688e-13
1.35163e-13
9.93769e-15
1.89319e-16
5.71336e-10
5.70199e-10
5.6794e-10
5.64561e-10
5.60072e-10
5.54501e-10
5.47903e-10
5.404e-10
5.32231e-10
5.23528e-10
5.14438e-10
5.05174e-10
4.94672e-10
4.83065e-10
4.70445e-10
4.56883e-10
4.4244e-10
4.27176e-10
4.11162e-10
3.94484e-10
3.7725e-10
3.5958e-10
3.41596e-10
3.23416e-10
3.05147e-10
2.86877e-10
2.68757e-10
2.50988e-10
2.33818e-10
2.17462e-10
2.02177e-10
1.87639e-10
1.74165e-10
1.6045e-10
1.46702e-10
1.33102e-10
1.19797e-10
1.06913e-10
9.45553e-11
8.28137e-11
7.17625e-11
6.14646e-11
5.19771e-11
4.3361e-11
3.56954e-11
2.90988e-11
2.3359e-11
1.84658e-11
1.44304e-11
1.13212e-11
8.98478e-12
7.84248e-12
6.21412e-12
4.50203e-12
2.92082e-12
1.57898e-12
5.8953e-13
1.43365e-13
1.31585e-14
3.4731e-16
5.98651e-10
5.97512e-10
5.95227e-10
5.91775e-10
5.87118e-10
5.81189e-10
5.73872e-10
5.65124e-10
5.56188e-10
5.46721e-10
5.36601e-10
5.25745e-10
5.14079e-10
5.01567e-10
4.88191e-10
4.73946e-10
4.58832e-10
4.42858e-10
4.26045e-10
4.08455e-10
3.90279e-10
3.71684e-10
3.52835e-10
3.33889e-10
3.14996e-10
2.95838e-10
2.7665e-10
2.57681e-10
2.39212e-10
2.21371e-10
2.04595e-10
1.88553e-10
1.73668e-10
1.587e-10
1.43957e-10
1.29627e-10
1.15811e-10
1.02601e-10
9.00873e-11
7.83492e-11
6.74399e-11
5.73964e-11
4.82478e-11
4.00244e-11
3.2775e-11
2.66e-11
2.12768e-11
1.679e-11
1.31106e-11
1.05409e-11
8.28111e-12
6.30696e-12
4.60245e-12
3.17869e-12
2.04266e-12
1.18477e-12
5.7997e-13
1.99327e-13
2.9057e-14
1.59181e-15
6.2393e-10
6.2285e-10
6.20708e-10
6.17499e-10
6.13224e-10
6.07886e-10
6.01495e-10
5.94076e-10
5.85669e-10
5.76295e-10
5.65965e-10
5.54686e-10
5.42467e-10
5.29315e-10
5.15233e-10
5.00221e-10
4.84264e-10
4.67323e-10
4.4907e-10
4.29798e-10
4.09838e-10
3.89477e-10
3.68921e-10
3.48364e-10
3.2798e-10
3.07303e-10
2.86558e-10
2.6597e-10
2.45767e-10
2.26186e-10
2.07355e-10
1.89274e-10
1.72002e-10
1.55553e-10
1.39952e-10
1.25226e-10
1.11154e-10
9.77761e-11
8.52391e-11
7.36577e-11
6.30413e-11
5.33929e-11
4.47104e-11
3.69884e-11
3.02179e-11
2.43865e-11
1.94741e-11
1.54601e-11
1.23251e-11
1.00705e-11
7.95906e-12
6.04336e-12
4.3758e-12
2.99341e-12
1.90775e-12
1.10345e-12
5.45094e-13
1.93139e-13
2.94768e-14
1.73427e-15
6.58762e-10
6.57656e-10
6.55463e-10
6.52179e-10
6.47802e-10
6.42333e-10
6.35774e-10
6.2813e-10
6.19408e-10
6.09621e-10
5.98784e-10
5.86917e-10
5.74043e-10
5.60186e-10
5.45373e-10
5.29628e-10
5.12982e-10
4.94557e-10
4.7461e-10
4.53449e-10
4.31432e-10
4.08958e-10
3.86384e-10
3.63952e-10
3.41897e-10
3.19667e-10
2.97433e-10
2.75399e-10
2.53789e-10
2.3284e-10
2.12855e-10
1.93673e-10
1.75398e-10
1.58108e-10
1.4181e-10
1.26464e-10
1.11808e-10
9.79979e-11
8.50949e-11
7.32437e-11
6.24423e-11
5.26814e-11
4.39471e-11
3.62243e-11
2.94963e-11
2.37458e-11
1.89545e-11
1.51002e-11
1.21384e-11
9.93657e-12
7.82011e-12
5.89464e-12
4.22961e-12
2.86353e-12
1.80492e-12
1.03406e-12
5.1019e-13
1.86027e-13
2.9925e-14
1.85963e-15
6.96729e-10
6.95576e-10
6.93291e-10
6.89865e-10
6.85294e-10
6.79573e-10
6.72696e-10
6.64663e-10
6.55476e-10
6.45142e-10
6.33678e-10
6.2111e-10
6.07472e-10
5.92801e-10
5.77131e-10
5.60467e-10
5.42738e-10
5.22843e-10
5.01155e-10
4.78052e-10
4.53935e-10
4.29229e-10
4.04392e-10
3.79801e-10
3.55672e-10
3.32168e-10
3.08591e-10
2.85209e-10
2.62288e-10
2.40093e-10
2.19017e-10
1.98836e-10
1.79655e-10
1.61648e-10
1.44844e-10
1.28726e-10
1.13405e-10
9.90079e-11
8.56831e-11
7.34928e-11
6.2436e-11
5.24934e-11
4.36352e-11
3.58446e-11
2.91001e-11
2.33831e-11
1.86828e-11
1.50072e-11
1.24063e-11
9.9837e-12
7.76318e-12
5.78886e-12
4.1062e-12
2.74538e-12
1.70859e-12
9.68788e-13
4.7688e-13
1.76756e-13
2.95824e-14
1.97166e-15
7.36683e-10
7.35484e-10
7.33106e-10
7.29537e-10
7.24768e-10
7.18787e-10
7.11581e-10
7.0314e-10
6.93458e-10
6.82535e-10
6.70386e-10
6.57042e-10
6.42554e-10
6.27009e-10
6.10529e-10
5.93292e-10
5.73711e-10
5.51956e-10
5.2832e-10
5.03173e-10
4.76928e-10
4.50034e-10
4.22968e-10
3.96241e-10
3.70231e-10
3.45142e-10
3.20045e-10
2.95224e-10
2.70959e-10
2.47525e-10
2.25344e-10
2.0416e-10
1.84056e-10
1.65266e-10
1.47809e-10
1.31063e-10
1.1516e-10
1.00245e-10
8.64787e-11
7.39271e-11
6.26056e-11
5.24724e-11
4.3472e-11
3.55943e-11
2.88112e-11
2.30968e-11
1.84318e-11
1.4814e-11
1.22882e-11
9.88436e-12
7.65697e-12
5.67199e-12
3.98701e-12
2.63573e-12
1.61923e-12
9.06575e-13
4.43419e-13
1.67489e-13
3.0115e-14
2.11582e-15
7.78507e-10
7.77264e-10
7.74802e-10
7.71104e-10
7.66153e-10
7.59931e-10
7.52414e-10
7.4358e-10
7.33407e-10
7.21882e-10
7.09e-10
6.94775e-10
6.7924e-10
6.62462e-10
6.44548e-10
6.25007e-10
6.04348e-10
5.81018e-10
5.55518e-10
5.28333e-10
4.99957e-10
4.70889e-10
4.41644e-10
4.12753e-10
3.84776e-10
3.5805e-10
3.31396e-10
3.05118e-10
2.7951e-10
2.54861e-10
2.31615e-10
2.09498e-10
1.88566e-10
1.6902e-10
1.50861e-10
1.3344e-10
1.16927e-10
1.01476e-10
8.72454e-11
7.43796e-11
6.28296e-11
5.2514e-11
4.33712e-11
3.54089e-11
2.8595e-11
2.28977e-11
1.82874e-11
1.47394e-11
1.22607e-11
9.84649e-12
7.5877e-12
5.57355e-12
3.87344e-12
2.52508e-12
1.52776e-12
8.43256e-13
4.08842e-13
1.55896e-13
3.01942e-14
2.25252e-15
8.22306e-10
8.21026e-10
8.1849e-10
8.14678e-10
8.09568e-10
8.03131e-10
7.95335e-10
7.86141e-10
7.75514e-10
7.63418e-10
7.4983e-10
7.34739e-10
7.18156e-10
7.00104e-10
6.80584e-10
6.58927e-10
6.36008e-10
6.10496e-10
5.8279e-10
5.53375e-10
5.22764e-10
4.91485e-10
4.60076e-10
4.29086e-10
3.99087e-10
3.70678e-10
3.4244e-10
3.14697e-10
2.87756e-10
2.61917e-10
2.37652e-10
2.14681e-10
1.93067e-10
1.7308e-10
1.53929e-10
1.35723e-10
1.18579e-10
1.02618e-10
8.79765e-11
7.48246e-11
6.3126e-11
5.25823e-11
4.32852e-11
3.52413e-11
2.84077e-11
2.27507e-11
1.82417e-11
1.4832e-11
1.23361e-11
9.85026e-12
7.52659e-12
5.47202e-12
3.75747e-12
2.4155e-12
1.43813e-12
7.8032e-13
3.7342e-13
1.43643e-13
3.03534e-14
2.38733e-15
8.68248e-10
8.66935e-10
8.64334e-10
8.60423e-10
8.55172e-10
8.48547e-10
8.40503e-10
8.30988e-10
8.19947e-10
8.07323e-10
7.93068e-10
7.77156e-10
7.59611e-10
7.4057e-10
7.18267e-10
6.93411e-10
6.66835e-10
6.39414e-10
6.09516e-10
5.77823e-10
5.44943e-10
5.11452e-10
4.77913e-10
4.44897e-10
4.12993e-10
3.82828e-10
3.52983e-10
3.23776e-10
2.95517e-10
2.68506e-10
2.43235e-10
2.194e-10
1.9702e-10
1.76257e-10
1.5638e-10
1.37544e-10
1.19875e-10
1.03486e-10
8.85006e-11
7.5077e-11
6.32043e-11
5.25206e-11
4.31201e-11
3.5026e-11
2.81951e-11
2.2606e-11
1.82794e-11
1.53204e-11
1.24999e-11
9.85173e-12
7.44295e-12
5.34667e-12
3.62036e-12
2.28932e-12
1.33777e-12
7.11937e-13
3.35318e-13
1.28932e-13
2.89608e-14
2.45222e-15
9.16532e-10
9.15189e-10
9.12532e-10
9.08533e-10
9.03159e-10
8.96368e-10
8.88105e-10
8.78304e-10
8.66891e-10
8.53778e-10
8.38865e-10
8.22034e-10
8.03146e-10
7.82095e-10
7.56948e-10
7.28818e-10
6.98843e-10
6.68239e-10
6.35596e-10
6.0139e-10
5.6616e-10
5.30455e-10
4.94827e-10
4.59842e-10
4.2609e-10
3.94213e-10
3.62804e-10
3.32177e-10
3.0264e-10
2.74502e-10
2.48284e-10
2.237e-10
2.00841e-10
1.79022e-10
1.58344e-10
1.38897e-10
1.20762e-10
1.04021e-10
8.877e-11
7.51414e-11
6.31404e-11
5.23491e-11
4.28692e-11
3.4742e-11
2.79173e-11
2.23645e-11
1.8094e-11
1.52117e-11
1.23965e-11
9.72241e-12
7.28567e-12
5.17679e-12
3.45846e-12
2.15204e-12
1.23336e-12
6.4155e-13
2.95363e-13
1.12724e-13
2.68669e-14
2.46539e-15
9.67374e-10
9.66004e-10
9.63298e-10
9.59223e-10
9.53742e-10
9.46807e-10
9.38352e-10
9.28303e-10
9.16575e-10
9.03075e-10
8.87703e-10
8.70314e-10
8.50583e-10
8.2556e-10
7.96343e-10
7.64048e-10
7.298e-10
6.94721e-10
6.59884e-10
6.2339e-10
5.85942e-10
5.48139e-10
5.10536e-10
4.73689e-10
4.38182e-10
4.0466e-10
3.71744e-10
3.39742e-10
3.08964e-10
2.79717e-10
2.52522e-10
2.27068e-10
2.03355e-10
1.80778e-10
1.59483e-10
1.39564e-10
1.21086e-10
1.0411e-10
8.87081e-11
7.49828e-11
6.2889e-11
5.20134e-11
4.24827e-11
3.43583e-11
2.75836e-11
2.21161e-11
1.79384e-11
1.51099e-11
1.22722e-11
9.55126e-12
7.07705e-12
4.95619e-12
3.25412e-12
1.98392e-12
1.10998e-12
5.61726e-13
2.51516e-13
9.43935e-14
2.34246e-14
2.37576e-15
1.02099e-09
1.0196e-09
1.01686e-09
1.01272e-09
1.00715e-09
1.0001e-09
9.91473e-10
9.81189e-10
9.69136e-10
9.55218e-10
9.39421e-10
9.21955e-10
8.98082e-10
8.68787e-10
8.35222e-10
7.98598e-10
7.60155e-10
7.21156e-10
6.82941e-10
6.43803e-10
6.04099e-10
5.64285e-10
5.24842e-10
4.86272e-10
4.49124e-10
4.14034e-10
3.79664e-10
3.46327e-10
3.14351e-10
2.84073e-10
2.55968e-10
2.2983e-10
2.04998e-10
1.81612e-10
1.59751e-10
1.39455e-10
1.20747e-10
1.03655e-10
8.82484e-11
7.46722e-11
6.23946e-11
5.14347e-11
4.18899e-11
3.38196e-11
2.71617e-11
2.18728e-11
1.79042e-11
1.50452e-11
1.21045e-11
9.29717e-12
6.78068e-12
4.66384e-12
2.99985e-12
1.78565e-12
9.71386e-13
4.75649e-13
2.05328e-13
7.49692e-14
1.91734e-14
2.19104e-15
1.0776e-09
1.07619e-09
1.07342e-09
1.06924e-09
1.06361e-09
1.05648e-09
1.04774e-09
1.03727e-09
1.02486e-09
1.01024e-09
9.93044e-10
9.72878e-10
9.4501e-10
9.11167e-10
8.72885e-10
8.31586e-10
7.88602e-10
7.45189e-10
7.02518e-10
6.61639e-10
6.20115e-10
5.78578e-10
5.37534e-10
4.97443e-10
4.58801e-10
4.22217e-10
3.86413e-10
3.51722e-10
3.18812e-10
2.87615e-10
2.58212e-10
2.30881e-10
2.05163e-10
1.81163e-10
1.58915e-10
1.38408e-10
1.19617e-10
1.02521e-10
8.71495e-11
7.36237e-11
6.1385e-11
5.04715e-11
4.1005e-11
3.30642e-11
2.66049e-11
2.16334e-11
1.82898e-11
1.49854e-11
1.18119e-11
8.89295e-12
6.34691e-12
4.25875e-12
2.66159e-12
1.53197e-12
8.01038e-13
3.73962e-13
1.52296e-13
5.23465e-14
1.32237e-14
1.75908e-15
1.13737e-09
1.13595e-09
1.13316e-09
1.12895e-09
1.12329e-09
1.11613e-09
1.10737e-09
1.09691e-09
1.08455e-09
1.06997e-09
1.05246e-09
1.02593e-09
9.92086e-10
9.52566e-10
9.08909e-10
8.62587e-10
8.15005e-10
7.67503e-10
7.21354e-10
6.77769e-10
6.34125e-10
5.90926e-10
5.485e-10
5.07129e-10
4.67167e-10
4.29146e-10
3.91868e-10
3.55705e-10
3.21417e-10
2.89009e-10
2.58657e-10
2.30192e-10
2.0374e-10
1.79319e-10
1.56887e-10
1.36371e-10
1.17685e-10
1.00755e-10
8.55596e-11
7.21351e-11
5.99764e-11
4.91552e-11
3.98238e-11
3.20691e-11
2.58565e-11
2.11607e-11
1.78392e-11
1.44544e-11
1.12069e-11
8.26063e-12
5.74326e-12
3.73215e-12
2.24433e-12
1.23387e-12
6.1066e-13
2.66228e-13
9.93335e-14
3.08023e-14
7.2621e-15
1.09763e-15
1.201e-09
1.19957e-09
1.19674e-09
1.19248e-09
1.18677e-09
1.17955e-09
1.17073e-09
1.16025e-09
1.14807e-09
1.13437e-09
1.11028e-09
1.07734e-09
1.03726e-09
9.91713e-10
9.42345e-10
8.90723e-10
8.38343e-10
7.86636e-10
7.36955e-10
6.90577e-10
6.45163e-10
6.00832e-10
5.57552e-10
5.15324e-10
4.74303e-10
4.34869e-10
3.95982e-10
3.58131e-10
3.22226e-10
2.88406e-10
2.56697e-10
2.27382e-10
2.00496e-10
1.75931e-10
1.53563e-10
1.33268e-10
1.14909e-10
9.83465e-11
8.3574e-11
7.01529e-11
5.80666e-11
4.73746e-11
3.82419e-11
3.07633e-11
2.49645e-11
2.09806e-11
1.72386e-11
1.36406e-11
1.02926e-11
7.33426e-12
4.88212e-12
2.99894e-12
1.67515e-12
8.34256e-13