/*--------------------------------*- C++ -*----------------------------------*\
| =========                 |                                                 |
| \\      /  F ield         | OpenFOAM: The Open Source CFD Toolbox           |
|  \\    /   O peration     | Version:  v1906                                 |
|   \\  /    A nd           | Web:      www.OpenFOAM.com                      |
|    \\/     M anipulation  |                                                 |
\*---------------------------------------------------------------------------*/
FoamFile
{
    version     2.0;
    format      ascii;
    class       volScalarField;
    location    "2.83";
    object      CH2(S);
}
// * * * * * * * * * * * * * * * * * * * * * * * * * * * * * * * * * * * * * //

dimensions      [0 0 0 0 0 0 0];


internalField   nonuniform List<scalar> 
26400
(
7.04605e-12
7.03773e-12
7.02111e-12
6.99623e-12
6.96313e-12
6.92189e-12
6.87261e-12
6.81539e-12
6.75036e-12
6.67767e-12
6.59747e-12
6.50996e-12
6.41534e-12
6.31383e-12
6.20566e-12
6.0911e-12
5.97042e-12
5.8439e-12
5.71184e-12
5.57455e-12
5.43233e-12
5.28549e-12
5.13436e-12
4.97924e-12
4.82041e-12
4.65817e-12
4.49277e-12
4.32442e-12
4.15331e-12
3.97958e-12
3.80327e-12
3.62288e-12
3.44006e-12
3.25518e-12
3.06858e-12
2.8806e-12
2.69157e-12
2.50192e-12
2.31209e-12
2.12067e-12
1.9301e-12
1.74129e-12
1.55519e-12
1.37284e-12
1.19536e-12
1.02393e-12
8.59874e-13
7.04671e-13
5.59998e-13
4.27793e-13
3.10283e-13
2.09927e-13
1.29145e-13
6.96535e-14
3.13078e-14
1.09434e-14
2.70501e-15
4.04953e-16
2.57018e-17
6.22168e-19
7.36891e-12
7.36022e-12
7.34288e-12
7.3169e-12
7.28237e-12
7.23933e-12
7.1879e-12
7.12817e-12
7.06029e-12
6.9844e-12
6.90068e-12
6.80932e-12
6.71055e-12
6.60459e-12
6.49171e-12
6.37218e-12
6.24631e-12
6.1144e-12
5.97679e-12
5.83381e-12
5.68581e-12
5.53315e-12
5.37617e-12
5.21523e-12
5.05067e-12
4.88281e-12
4.71194e-12
4.53833e-12
4.36219e-12
4.18367e-12
4.0029e-12
3.81682e-12
3.62707e-12
3.43519e-12
3.24157e-12
3.04655e-12
2.84986e-12
2.65252e-12
2.45503e-12
2.2543e-12
2.05378e-12
1.855e-12
1.65902e-12
1.46696e-12
1.27998e-12
1.0993e-12
9.26244e-13
7.62273e-13
6.09027e-13
4.68406e-13
3.42634e-13
2.34241e-13
1.45874e-13
7.97173e-14
3.62596e-14
1.27533e-14
3.14488e-15
4.67316e-16
2.96919e-17
7.25373e-19
7.77706e-12
7.76789e-12
7.74956e-12
7.72213e-12
7.68564e-12
7.64018e-12
7.58582e-12
7.52269e-12
7.45093e-12
7.37069e-12
7.28216e-12
7.18555e-12
7.08109e-12
6.96905e-12
6.8497e-12
6.72336e-12
6.59036e-12
6.45106e-12
6.30582e-12
6.15503e-12
5.9991e-12
5.83842e-12
5.67342e-12
5.50452e-12
5.3321e-12
5.15656e-12
4.97826e-12
4.79754e-12
4.61467e-12
4.42988e-12
4.24341e-12
4.05044e-12
3.85242e-12
3.65132e-12
3.44871e-12
3.24501e-12
3.03807e-12
2.83063e-12
2.62336e-12
2.41134e-12
2.19787e-12
1.98635e-12
1.77796e-12
1.57388e-12
1.37533e-12
1.18357e-12
9.99898e-13
8.25765e-13
6.62767e-13
5.12759e-13
3.77936e-13
2.6088e-13
1.6444e-13
9.1191e-14
4.21923e-14
1.50367e-14
3.71849e-15
5.49772e-16
3.48367e-17
8.53754e-19
8.22377e-12
8.21406e-12
8.19466e-12
8.16562e-12
8.12698e-12
8.07881e-12
8.0212e-12
7.95427e-12
7.87815e-12
7.79301e-12
7.69903e-12
7.59646e-12
7.48553e-12
7.36654e-12
7.2398e-12
7.10566e-12
6.96449e-12
6.81669e-12
6.66268e-12
6.50291e-12
6.33785e-12
6.16797e-12
5.99375e-12
5.81569e-12
5.63427e-12
5.44997e-12
5.26323e-12
5.07449e-12
4.88411e-12
4.69241e-12
4.49983e-12
4.29975e-12
4.09353e-12
3.88305e-12
3.67058e-12
3.45767e-12
3.24034e-12
3.02135e-12
2.80316e-12
2.57906e-12
2.3522e-12
2.12659e-12
1.90469e-12
1.68773e-12
1.47694e-12
1.27357e-12
1.07891e-12
8.94339e-13
7.21377e-13
5.61788e-13
4.17684e-13
2.91629e-13
1.86598e-13
1.05554e-13
5.01367e-14
1.81752e-14
4.5007e-15
6.55934e-16
4.12254e-17
1.01695e-18
8.70082e-12
8.69056e-12
8.67007e-12
8.63937e-12
8.59849e-12
8.5475e-12
8.48646e-12
8.41548e-12
8.33469e-12
8.24425e-12
8.14438e-12
8.03529e-12
7.91728e-12
7.79064e-12
7.65574e-12
7.51295e-12
7.3627e-12
7.20545e-12
7.04168e-12
6.87189e-12
6.69664e-12
6.51647e-12
6.33196e-12
6.14367e-12
5.9522e-12
5.75812e-12
5.56198e-12
5.36432e-12
5.16564e-12
4.96638e-12
4.7672e-12
4.55968e-12
4.34514e-12
4.12545e-12
3.90285e-12
3.67997e-12
3.45182e-12
3.2211e-12
2.99106e-12
2.75424e-12
2.51368e-12
2.27313e-12
2.03695e-12
1.80645e-12
1.58291e-12
1.36754e-12
1.16159e-12
9.66357e-13
7.83247e-13
6.13915e-13
4.60386e-13
3.25207e-13
2.11505e-13
1.22693e-13
6.10248e-14
2.25336e-14
5.556e-15
7.96228e-16
4.94925e-17
1.2239e-18
9.20774e-12
9.19697e-12
9.17544e-12
9.14315e-12
9.10009e-12
9.04627e-12
8.98173e-12
8.90655e-12
8.82085e-12
8.7248e-12
8.61858e-12
8.50246e-12
8.37672e-12
8.24172e-12
8.09784e-12
7.94552e-12
7.78523e-12
7.6175e-12
7.44288e-12
7.26196e-12
7.07535e-12
6.88372e-12
6.68771e-12
6.48801e-12
6.2853e-12
6.08029e-12
5.87363e-12
5.66601e-12
5.45805e-12
5.25034e-12
5.04381e-12
4.82824e-12
4.60493e-12
4.37582e-12
4.14317e-12
3.90961e-12
3.67027e-12
3.42775e-12
3.18517e-12
2.93525e-12
2.68097e-12
2.42594e-12
2.17463e-12
1.93011e-12
1.69356e-12
1.46614e-12
1.24897e-12
1.04318e-12
8.50024e-13
6.70978e-13
5.07955e-13
3.63473e-13
2.40836e-13
1.44244e-13
7.87905e-14
2.87499e-14
6.96097e-15
9.69313e-16
5.91746e-17
1.46178e-18
9.74531e-12
9.73416e-12
9.71187e-12
9.67833e-12
9.63338e-12
9.57694e-12
9.50899e-12
9.42956e-12
9.33877e-12
9.23678e-12
9.12379e-12
9.00006e-12
8.86592e-12
8.72175e-12
8.56799e-12
8.40513e-12
8.23372e-12
8.05434e-12
7.86765e-12
7.67431e-12
7.47504e-12
7.27059e-12
7.06173e-12
6.84925e-12
6.63395e-12
6.41667e-12
6.1982e-12
5.97935e-12
5.76091e-12
5.54364e-12
5.32876e-12
5.10424e-12
4.87139e-12
4.63224e-12
4.38912e-12
4.14467e-12
3.8941e-12
3.63976e-12
3.38409e-12
3.12055e-12
2.85228e-12
2.58278e-12
2.31621e-12
2.05755e-12
1.808e-12
1.56863e-12
1.3404e-12
1.12423e-12
9.21097e-13
7.32243e-13
5.59562e-13
4.05578e-13
2.73646e-13
1.68269e-13
9.58423e-14
3.54091e-14
8.51675e-15
1.14993e-15
6.89329e-17
1.70237e-18
1.03136e-11
1.03024e-11
1.02801e-11
1.02468e-11
1.02008e-11
1.01423e-11
1.00711e-11
9.98735e-12
9.89127e-12
9.78306e-12
9.66284e-12
9.53088e-12
9.38753e-12
9.23326e-12
9.06857e-12
8.89401e-12
8.71021e-12
8.51786e-12
8.31768e-12
8.11047e-12
7.89703e-12
7.67824e-12
7.45498e-12
7.22817e-12
6.99874e-12
6.76766e-12
6.53587e-12
6.30435e-12
6.07403e-12
5.84588e-12
5.62143e-12
5.38684e-12
5.14346e-12
4.89351e-12
4.63949e-12
4.38426e-12
4.12355e-12
3.86021e-12
3.58796e-12
3.30911e-12
3.02633e-12
2.74272e-12
2.462e-12
2.18891e-12
1.92651e-12
1.67565e-12
1.43704e-12
1.2112e-12
9.98509e-13
7.99606e-13
6.16967e-13
4.53339e-13
3.12065e-13
1.97524e-13
1.16716e-13
4.3916e-14
1.05171e-14
1.37027e-15
8.04142e-17
1.98468e-18
1.09107e-11
1.08991e-11
1.08758e-11
1.08411e-11
1.07951e-11
1.0738e-11
1.06665e-11
1.05809e-11
1.0481e-11
1.03671e-11
1.02394e-11
1.00983e-11
9.94465e-12
9.77917e-12
9.60231e-12
9.4147e-12
9.21706e-12
9.01019e-12
8.79493e-12
8.57217e-12
8.34286e-12
8.108e-12
7.86859e-12
7.6257e-12
7.3804e-12
7.1338e-12
6.887e-12
6.64113e-12
6.39732e-12
6.15672e-12
5.92119e-12
5.67506e-12
5.41972e-12
5.15754e-12
4.89109e-12
4.62324e-12
4.34976e-12
4.073e-12
3.78726e-12
3.49514e-12
3.19934e-12
2.90284e-12
2.60911e-12
2.32248e-12
2.04804e-12
1.7867e-12
1.53907e-12
1.3052e-12
1.08386e-12
8.73192e-13
6.79891e-13
5.06799e-13
3.56959e-13
2.33822e-13
1.4243e-13
5.46708e-14
1.30201e-14
1.617e-15
9.17371e-17
2.23282e-18
1.15414e-11
1.15288e-11
1.15038e-11
1.14665e-11
1.14169e-11
1.13555e-11
1.12825e-11
1.11984e-11
1.1098e-11
1.09818e-11
1.08498e-11
1.07023e-11
1.05396e-11
1.03627e-11
1.01724e-11
9.97008e-12
9.75691e-12
9.53374e-12
9.30155e-12
9.06136e-12
8.81425e-12
8.56137e-12
8.30386e-12
8.04293e-12
7.77981e-12
7.51576e-12
7.25203e-12
6.98994e-12
6.7308e-12
6.47596e-12
6.22765e-12
5.96839e-12
5.69971e-12
5.42425e-12
5.14486e-12
4.86455e-12
4.58027e-12
4.28679e-12
3.98613e-12
3.68038e-12
3.37183e-12
3.06311e-12
2.7574e-12
2.45871e-12
2.17233e-12
1.90137e-12
1.64699e-12
1.41051e-12
1.17596e-12
9.52062e-13
7.48237e-13
5.66957e-13
4.11177e-13
2.83235e-13
1.75478e-13
6.83234e-14
1.61615e-14
1.89465e-15
1.03266e-16
2.46184e-18
1.22115e-11
1.21979e-11
1.21707e-11
1.21301e-11
1.20764e-11
1.20097e-11
1.19304e-11
1.18389e-11
1.17354e-11
1.16205e-11
1.14872e-11
1.13359e-11
1.11669e-11
1.09811e-11
1.07793e-11
1.05627e-11
1.03328e-11
1.00912e-11
9.83997e-12
9.5802e-12
9.31314e-12
9.04006e-12
8.76229e-12
8.48117e-12
8.19809e-12
7.91445e-12
7.6317e-12
7.35128e-12
7.07469e-12
6.80347e-12
6.54019e-12
6.26557e-12
5.98136e-12
5.69068e-12
5.39715e-12
5.09859e-12
4.79914e-12
4.49229e-12
4.17933e-12
3.86192e-12
3.54206e-12
3.2222e-12
2.90529e-12
2.5951e-12
2.29652e-12
2.01495e-12
1.75172e-12
1.5083e-12
1.26574e-12
1.0321e-12
8.19971e-13
6.32839e-13
4.76298e-13
3.62371e-13
2.17202e-13
8.45089e-14
1.97463e-14
2.15828e-15
1.11287e-16
2.54883e-18
1.29258e-11
1.29109e-11
1.28814e-11
1.28373e-11
1.27789e-11
1.27066e-11
1.26207e-11
1.25218e-11
1.24105e-11
1.22873e-11
1.2153e-11
1.19983e-11
1.18239e-11
1.16302e-11
1.14183e-11
1.11891e-11
1.0944e-11
1.06847e-11
1.0413e-11
1.01312e-11
9.84177e-12
9.54609e-12
9.24566e-12
8.94201e-12
8.63666e-12
8.33119e-12
8.02717e-12
7.7262e-12
7.4299e-12
7.13994e-12
6.85913e-12
6.56611e-12
6.26258e-12
5.95159e-12
5.63634e-12
5.31404e-12
5.0077e-12
4.69225e-12
4.36971e-12
4.04218e-12
3.71192e-12
3.38149e-12
3.0539e-12
2.7328e-12
2.42287e-12
2.13037e-12
1.85824e-12
1.60818e-12
1.35869e-12
1.11726e-12
8.96195e-13
7.01817e-13
5.38364e-13
4.15013e-13
2.54262e-13
1.00971e-13
2.35595e-14
2.4001e-15
1.17441e-16
2.54547e-18
1.36886e-11
1.36723e-11
1.36399e-11
1.35916e-11
1.35276e-11
1.34485e-11
1.33546e-11
1.32465e-11
1.3125e-11
1.29907e-11
1.28446e-11
1.26876e-11
1.25085e-11
1.23078e-11
1.20864e-11
1.18454e-11
1.15862e-11
1.13104e-11
1.10197e-11
1.07163e-11
1.04028e-11
1.00818e-11
9.75607e-12
9.42736e-12
9.09731e-12
8.76766e-12
8.44011e-12
8.1164e-12
7.79828e-12
7.48757e-12
7.18732e-12
6.87425e-12
6.55032e-12
6.21905e-12
5.8845e-12
5.54565e-12
5.22627e-12
4.89865e-12
4.56438e-12
4.22535e-12
3.88377e-12
3.54218e-12
3.20356e-12
2.8715e-12
2.55054e-12
2.24663e-12
1.96537e-12
1.70878e-12
1.45309e-12
1.20565e-12
9.78094e-13
7.80884e-13
6.16306e-13
4.78172e-13
2.97674e-13
1.21241e-13
2.8198e-14
2.65669e-15
1.23465e-16
2.50241e-18
1.45052e-11
1.44873e-11
1.44517e-11
1.43985e-11
1.43281e-11
1.4241e-11
1.41377e-11
1.40188e-11
1.38851e-11
1.37374e-11
1.35768e-11
1.34043e-11
1.32212e-11
1.30141e-11
1.27838e-11
1.25314e-11
1.22583e-11
1.19662e-11
1.16569e-11
1.13326e-11
1.09958e-11
1.06492e-11
1.0296e-11
9.9394e-12
9.58204e-12
9.22574e-12
8.87232e-12
8.52362e-12
8.18144e-12
7.84762e-12
7.52531e-12
7.18905e-12
6.84054e-12
6.48287e-12
6.11911e-12
5.77251e-12
5.44458e-12
5.10682e-12
4.76147e-12
4.41088e-12
4.05753e-12
3.70419e-12
3.35396e-12
3.01049e-12
2.67819e-12
2.36274e-12
2.0718e-12
1.80817e-12
1.54634e-12
1.29385e-12
1.06273e-12
8.71071e-13
7.33505e-13
5.52848e-13
3.46166e-13
1.47661e-13
3.39238e-14
3.10408e-15
1.34922e-16
2.5231e-18
1.53813e-11
1.53616e-11
1.53224e-11
1.52639e-11
1.51865e-11
1.50906e-11
1.49768e-11
1.48457e-11
1.46982e-11
1.45352e-11
1.43577e-11
1.4167e-11
1.39644e-11
1.37514e-11
1.35124e-11
1.32487e-11
1.29617e-11
1.2653e-11
1.23248e-11
1.19794e-11
1.16193e-11
1.12474e-11
1.08669e-11
1.04811e-11
1.00936e-11
9.70823e-12
9.32672e-12
8.95101e-12
8.58298e-12
8.22456e-12
7.87912e-12
7.51932e-12
7.14732e-12
6.76708e-12
6.38327e-12
6.02008e-12
5.67793e-12
5.32621e-12
4.96703e-12
4.60271e-12
4.23583e-12
3.86926e-12
3.50621e-12
3.15037e-12
2.80618e-12
2.47919e-12
2.17675e-12
1.90454e-12
1.63527e-12
1.37602e-12
1.13754e-12
9.38951e-13
7.96112e-13
6.08524e-13
3.91829e-13
1.77459e-13
4.08456e-14
3.71024e-15
1.52499e-16
2.66807e-18
1.63226e-11
1.6301e-11
1.62581e-11
1.6194e-11
1.61091e-11
1.60038e-11
1.58788e-11
1.57346e-11
1.55722e-11
1.53923e-11
1.51962e-11
1.4985e-11
1.47602e-11
1.45233e-11
1.42762e-11
1.40012e-11
1.36997e-11
1.33738e-11
1.30257e-11
1.26579e-11
1.22733e-11
1.18753e-11
1.14673e-11
1.10527e-11
1.06353e-11
1.02186e-11
9.80683e-12
9.40205e-12
9.00602e-12
8.6205e-12
8.24877e-12
7.86108e-12
7.45915e-12
7.04611e-12
6.65125e-12
6.2759e-12
5.92129e-12
5.55583e-12
5.18213e-12
4.80294e-12
4.42114e-12
4.03982e-12
3.66239e-12
3.29266e-12
2.93512e-12
2.59526e-12
2.28017e-12
1.99836e-12
1.72166e-12
1.45675e-12
1.21318e-12
1.0076e-12
8.59397e-13
6.66999e-13
4.43345e-13
2.14902e-13
5.12376e-14
4.77077e-15
1.94323e-16
3.30386e-18
1.7335e-11
1.73116e-11
1.72648e-11
1.71951e-11
1.71026e-11
1.69878e-11
1.68513e-11
1.66937e-11
1.65157e-11
1.63182e-11
1.61023e-11
1.58691e-11
1.56201e-11
1.53567e-11
1.50808e-11
1.47945e-11
1.4478e-11
1.41334e-11
1.37631e-11
1.33703e-11
1.29585e-11
1.25318e-11
1.2095e-11
1.16519e-11
1.1206e-11
1.07605e-11
1.03187e-11
9.88416e-12
9.4595e-12
9.04629e-12
8.64808e-12
8.23345e-12
7.80518e-12
7.36836e-12
6.9531e-12
6.55952e-12
6.18814e-12
5.80562e-12
5.41467e-12
5.01818e-12
4.6192e-12
4.221e-12
3.82707e-12
3.44131e-12
3.06821e-12
2.71319e-12
2.38332e-12
2.0885e-12
1.80434e-12
1.53479e-12
1.28745e-12
1.07629e-12
9.23433e-13
7.28937e-13
5.02761e-13
2.64083e-13
6.9038e-14
6.98035e-15
3.11934e-16
5.48762e-18
1.84241e-11
1.83988e-11
1.83484e-11
1.82732e-11
1.81734e-11
1.80494e-11
1.79018e-11
1.7731e-11
1.75379e-11
1.73231e-11
1.70876e-11
1.68324e-11
1.65585e-11
1.62675e-11
1.59609e-11
1.56405e-11
1.53086e-11
1.49433e-11
1.4547e-11
1.41233e-11
1.36763e-11
1.32091e-11
1.27402e-11
1.22701e-11
1.17999e-11
1.1331e-11
1.08654e-11
1.0405e-11
9.95215e-12
9.5089e-12
9.07922e-12
8.62949e-12
8.16181e-12
7.71186e-12
7.28114e-12
6.87094e-12
6.48252e-12
6.08166e-12
5.6717e-12
5.25592e-12
4.83767e-12
4.42035e-12
4.00756e-12
3.60314e-12
3.21131e-12
2.83687e-12
2.48556e-12
2.16457e-12
1.88101e-12
1.60943e-12
1.35873e-12
1.14202e-12
9.83238e-13
7.88226e-13
5.64926e-13
3.23816e-13
9.91275e-14
1.18583e-14
7.23476e-16
1.4871e-17
1.95946e-11
1.95676e-11
1.95138e-11
1.94335e-11
1.93269e-11
1.91944e-11
1.90366e-11
1.88539e-11
1.86471e-11
1.84166e-11
1.81633e-11
1.78878e-11
1.75912e-11
1.72742e-11
1.69381e-11
1.65839e-11
1.62133e-11
1.58281e-11
1.54035e-11
1.49424e-11
1.44693e-11
1.39863e-11
1.34953e-11
1.29986e-11
1.24984e-11
1.19974e-11
1.1498e-11
1.10031e-11
1.05152e-11
1.00374e-11
9.57453e-12
9.09209e-12
8.59449e-12
8.11809e-12
7.6631e-12
7.23011e-12
6.82002e-12
6.39746e-12
5.9658e-12
5.52834e-12
5.08841e-12
4.64948e-12
4.21521e-12
3.78955e-12
3.3768e-12
2.98184e-12
2.61037e-12
2.26942e-12
1.96837e-12
1.68347e-12
1.4225e-12
1.19655e-12
1.02527e-12
8.27519e-13
6.10225e-13
3.78189e-13
1.47934e-13
2.40041e-14
2.60629e-15
7.18106e-17
2.08509e-11
2.08222e-11
2.07652e-11
2.068e-11
2.05671e-11
2.04268e-11
2.02599e-11
2.00667e-11
1.9848e-11
1.96044e-11
1.93365e-11
1.9045e-11
1.87303e-11
1.83931e-11
1.80339e-11
1.76528e-11
1.72504e-11
1.68268e-11
1.63818e-11
1.59098e-11
1.54152e-11
1.49028e-11
1.43776e-11
1.38437e-11
1.33044e-11
1.27628e-11
1.22221e-11
1.16851e-11
1.11546e-11
1.06335e-11
1.01259e-11
9.59395e-12
9.07779e-12
8.57935e-12
8.10045e-12
7.64298e-12
7.2091e-12
6.76455e-12
6.31133e-12
5.85202e-12
5.38968e-12
4.92768e-12
4.46974e-12
4.01987e-12
3.58244e-12
3.16228e-12
2.76482e-12
2.39649e-12
2.0652e-12
1.76361e-12
1.48774e-12
1.24645e-12
1.05343e-12
8.5121e-13
6.42152e-13
4.28179e-13
2.18997e-13
6.09131e-14
1.24162e-14
5.31988e-16
2.22076e-11
2.21772e-11
2.21168e-11
2.20266e-11
2.19073e-11
2.17594e-11
2.15836e-11
2.13808e-11
2.11517e-11
2.08972e-11
2.0618e-11
2.03148e-11
1.99883e-11
1.96389e-11
1.92672e-11
1.88736e-11
1.84581e-11
1.80212e-11
1.75498e-11
1.70477e-11
1.65192e-11
1.59687e-11
1.5401e-11
1.48214e-11
1.42355e-11
1.36476e-11
1.3061e-11
1.24792e-11
1.19055e-11
1.13436e-11
1.07999e-11
1.02335e-11
9.68264e-12
9.15017e-12
8.6369e-12
8.14354e-12
7.67062e-12
7.21831e-12
6.75265e-12
6.27733e-12
5.79611e-12
5.31288e-12
4.83163e-12
4.35654e-12
3.89206e-12
3.44294e-12
3.01426e-12
2.61171e-12
2.24191e-12
1.91206e-12
1.61511e-12
1.34902e-12
1.11981e-12
9.31136e-13
7.40382e-13
5.51015e-13
3.65423e-13
2.03717e-13
6.42284e-14
3.64026e-15
2.36654e-11
2.36309e-11
2.35622e-11
2.34599e-11
2.33249e-11
2.3158e-11
2.29604e-11
2.27334e-11
2.2478e-11
2.21956e-11
2.18871e-11
2.15536e-11
2.11958e-11
2.08144e-11
2.04097e-11
1.99819e-11
1.95311e-11
1.90364e-11
1.85023e-11
1.79337e-11
1.73353e-11
1.67125e-11
1.60706e-11
1.54156e-11
1.47534e-11
1.40908e-11
1.34323e-11
1.27809e-11
1.21399e-11
1.15119e-11
1.09015e-11
1.03026e-11
9.71928e-12
9.15694e-12
8.6173e-12
8.10178e-12
7.61175e-12
7.10505e-12
6.58644e-12
6.0606e-12
5.53218e-12
5.00577e-12
4.48603e-12
3.97778e-12
3.4862e-12
3.01719e-12
2.57798e-12
2.17717e-12
1.82521e-12
1.51285e-12
1.23656e-12
1.00766e-12
8.38159e-13
6.57224e-13
4.7162e-13
2.90633e-13
1.28872e-13
2.93872e-14
2.54408e-15
5.80761e-17
2.52139e-11
2.51739e-11
2.50945e-11
2.49764e-11
2.4821e-11
2.46297e-11
2.44044e-11
2.41469e-11
2.38593e-11
2.35434e-11
2.32009e-11
2.2833e-11
2.24408e-11
2.20249e-11
2.15857e-11
2.11229e-11
2.06066e-11
2.00423e-11
1.94355e-11
1.87917e-11
1.81167e-11
1.74162e-11
1.66963e-11
1.59634e-11
1.52241e-11
1.44856e-11
1.37557e-11
1.30382e-11
1.23367e-11
1.16545e-11
1.09964e-11
1.03549e-11
9.73455e-12
9.14183e-12
8.57797e-12
8.04355e-12
7.49096e-12
6.92604e-12
6.35448e-12
5.78181e-12
5.21347e-12
4.6548e-12
4.11124e-12
3.58837e-12
3.09222e-12
2.62941e-12
2.20749e-12
1.83493e-12
1.50273e-12
1.2184e-12
9.8518e-13
8.26467e-13
6.6381e-13
4.99351e-13
3.38929e-13
1.9175e-13
7.43013e-14
1.52797e-14
1.17109e-15
2.42563e-17
2.68642e-11
2.68174e-11
2.67244e-11
2.65864e-11
2.64052e-11
2.6183e-11
2.59228e-11
2.56281e-11
2.53025e-11
2.49483e-11
2.45679e-11
2.41635e-11
2.37366e-11
2.3288e-11
2.28175e-11
2.2284e-11
2.16943e-11
2.10548e-11
2.03715e-11
1.96507e-11
1.88984e-11
1.81208e-11
1.73241e-11
1.6515e-11
1.57005e-11
1.48884e-11
1.40871e-11
1.33041e-11
1.25435e-11
1.18093e-11
1.1107e-11
1.04266e-11
9.77426e-12
9.15791e-12
8.57902e-12
7.98015e-12
7.36847e-12
6.7507e-12
6.13317e-12
5.52189e-12
4.92259e-12
4.34086e-12
3.7823e-12
3.25275e-12
2.75877e-12
2.30823e-12
1.91138e-12
1.5566e-12
1.24779e-12
9.91069e-13
7.9098e-13
6.71606e-13
5.39145e-13
4.0044e-13
2.64234e-13
1.41384e-13
5.13683e-14
9.73021e-15
6.67536e-16
1.20692e-17
2.85634e-11
2.85109e-11
2.84066e-11
2.82517e-11
2.8048e-11
2.7798e-11
2.75048e-11
2.71721e-11
2.68043e-11
2.64061e-11
2.59824e-11
2.55386e-11
2.50777e-11
2.46003e-11
2.40521e-11
2.34413e-11
2.2775e-11
2.20598e-11
2.13018e-11
2.0507e-11
1.96815e-11
1.88312e-11
1.79625e-11
1.70819e-11
1.61966e-11
1.53142e-11
1.44436e-11
1.35948e-11
1.27745e-11
1.19877e-11
1.1241e-11
1.05223e-11
9.84098e-12
9.21037e-12
8.56164e-12
7.90123e-12
7.23604e-12
6.57294e-12
5.91848e-12
5.27883e-12
4.65973e-12
4.06665e-12
3.5049e-12
2.97993e-12
2.49775e-12
2.06551e-12
1.6926e-12
1.36316e-12
1.08029e-12
8.49369e-13
6.76285e-13
5.81132e-13
4.67434e-13
3.44761e-13
2.2424e-13
1.17402e-13
4.22242e-14
8.20781e-15
5.65142e-16
1.0447e-17
3.02524e-11
3.01948e-11
3.00802e-11
2.99097e-11
2.96851e-11
2.94088e-11
2.90845e-11
2.87168e-11
2.83117e-11
2.78753e-11
2.7414e-11
2.69343e-11
2.64422e-11
2.58774e-11
2.52481e-11
2.45612e-11
2.38227e-11
2.30379e-11
2.22123e-11
2.13511e-11
2.04599e-11
1.95447e-11
1.86113e-11
1.76663e-11
1.67161e-11
1.57681e-11
1.4831e-11
1.3915e-11
1.30321e-11
1.21878e-11
1.13902e-11
1.06224e-11
9.89368e-12
9.21368e-12
8.51227e-12
7.80169e-12
7.09213e-12
6.3922e-12
5.70925e-12
5.04963e-12
4.41886e-12
3.82194e-12
3.26353e-12
2.7484e-12
2.2818e-12
1.86988e-12
1.51972e-12
1.2126e-12
9.51788e-13
7.42146e-13
5.89014e-13
5.13057e-13
4.11282e-13
3.00286e-13
1.93234e-13
1.0019e-13
3.56564e-14
7.33625e-15
5.3556e-16
1.00808e-17
3.1903e-11
3.18414e-11
3.17186e-11
3.15349e-11
3.1291e-11
3.09885e-11
3.06302e-11
3.02221e-11
2.97758e-11
2.92984e-11
2.87981e-11
2.82865e-11
2.77059e-11
2.7064e-11
2.63664e-11
2.56172e-11
2.48201e-11
2.39785e-11
2.30963e-11
2.21783e-11
2.12303e-11
2.02585e-11
1.92695e-11
1.82693e-11
1.72637e-11
1.62572e-11
1.52577e-11
1.42762e-11
1.3326e-11
1.24191e-11
1.15675e-11
1.07543e-11
9.99929e-12
9.22869e-12
8.45408e-12
7.68557e-12
6.93156e-12
6.19916e-12
5.49456e-12
4.82307e-12
4.18921e-12
3.5969e-12
3.0498e-12
2.55193e-12
2.10846e-12
1.72701e-12
1.39218e-12
1.10392e-12
8.63112e-13
6.73486e-13
5.3043e-13
4.54657e-13
3.55148e-13
2.53777e-13
1.62139e-13
8.60433e-14
3.22162e-14
7.74744e-15
6.92669e-16
1.72532e-17
3.34926e-11
3.34299e-11
3.33042e-11
3.31148e-11
3.28599e-11
3.25368e-11
3.21407e-11
3.1666e-11
3.11733e-11
3.0649e-11
3.0087e-11
2.94835e-11
2.88348e-11
2.81394e-11
2.73968e-11
2.66069e-11
2.57702e-11
2.48874e-11
2.39598e-11
2.29909e-11
2.19907e-11
2.09678e-11
1.9931e-11
1.88884e-11
1.78479e-11
1.67918e-11
1.57327e-11
1.46842e-11
1.36617e-11
1.26724e-11
1.17381e-11
1.08404e-11
1.00056e-11
9.16359e-12
8.33158e-12
7.5202e-12
6.73521e-12
5.98192e-12
5.26578e-12
4.5916e-12
3.96276e-12
3.38178e-12
2.85076e-12
2.372e-12
1.949e-12
1.58861e-12
1.27505e-12
1.00829e-12
7.86532e-13
6.30336e-13
4.92867e-13
3.72934e-13
2.69892e-13
1.84475e-13
1.1701e-13
6.67375e-14
3.19292e-14
1.05856e-14
1.46498e-15
7.16097e-17
3.49942e-11
3.4934e-11
3.48136e-11
3.46331e-11
3.43929e-11
3.40931e-11
3.37345e-11
3.33183e-11
3.2847e-11
3.23216e-11
3.17431e-11
3.11122e-11
3.04296e-11
2.9696e-11
2.89119e-11
2.80777e-11
2.71928e-11
2.62556e-11
2.52498e-11
2.41905e-11
2.30948e-11
2.19775e-11
2.08493e-11
1.97203e-11
1.85997e-11
1.74616e-11
1.6318e-11
1.51811e-11
1.40634e-11
1.29782e-11
1.19295e-11
1.0917e-11
9.94735e-12
9.02096e-12
8.13919e-12
7.30363e-12
6.50176e-12
5.7363e-12
5.01593e-12
4.3476e-12
3.73228e-12
3.17059e-12
2.66287e-12
2.20927e-12
1.80972e-12
1.46392e-12
1.17107e-12
9.30331e-13
7.40906e-13
6.03203e-13
4.74252e-13
3.57614e-13
2.56653e-13
1.73635e-13
1.09136e-13
6.20201e-14
2.99196e-14
1.02287e-14
1.48263e-15
7.86976e-17
3.69617e-11
3.68996e-11
3.67754e-11
3.65892e-11
3.63414e-11
3.60319e-11
3.56611e-11
3.52295e-11
3.47378e-11
3.41869e-11
3.35779e-11
3.29121e-11
3.21912e-11
3.14166e-11
3.05902e-11
2.97135e-11
2.87885e-11
2.77708e-11
2.66739e-11
2.55136e-11
2.43085e-11
2.3079e-11
2.18435e-11
2.06147e-11
1.94048e-11
1.81834e-11
1.69594e-11
1.57439e-11
1.45493e-11
1.33888e-11
1.22757e-11
1.12009e-11
1.01739e-11
9.19894e-12
8.27618e-12
7.40361e-12
6.56632e-12
5.77368e-12
5.02978e-12
4.34332e-12
3.71469e-12
3.14391e-12
2.63071e-12
2.17471e-12
1.77546e-12
1.4324e-12
1.14494e-12
9.12157e-13
7.31796e-13
5.96278e-13
4.66416e-13
3.48852e-13
2.47904e-13
1.65849e-13
1.03014e-13
5.79435e-14
2.79087e-14
9.82875e-15
1.50279e-15
8.48682e-17
3.90904e-11
3.90253e-11
3.88954e-11
3.87004e-11
3.84405e-11
3.81155e-11
3.77254e-11
3.72705e-11
3.67512e-11
3.61681e-11
3.55227e-11
3.48165e-11
3.40516e-11
3.32306e-11
3.23555e-11
3.1427e-11
3.04418e-11
2.93444e-11
2.81541e-11
2.68902e-11
2.55734e-11
2.42256e-11
2.28701e-11
2.15265e-11
2.02058e-11
1.89166e-11
1.76203e-11
1.63317e-11
1.50653e-11
1.38362e-11
1.26622e-11
1.15304e-11
1.04514e-11
9.43461e-12
8.48162e-12
7.56289e-12
6.68519e-12
5.85641e-12
5.0856e-12
4.37695e-12
3.73094e-12
3.14702e-12
2.62428e-12
2.16213e-12
1.75987e-12
1.41696e-12
1.13324e-12
9.09623e-13
7.49364e-13
5.99964e-13
4.63383e-13
3.42607e-13
2.4049e-13
1.58757e-13
9.72864e-14
5.41227e-14
2.60006e-14
9.31257e-15
1.48177e-15
9.0339e-17
4.1326e-11
4.1258e-11
4.11223e-11
4.09184e-11
4.06463e-11
4.03054e-11
3.98954e-11
3.94161e-11
3.88675e-11
3.82501e-11
3.75651e-11
3.68144e-11
3.60012e-11
3.51304e-11
3.42088e-11
3.3246e-11
3.21618e-11
3.09651e-11
2.9671e-11
2.82984e-11
2.68686e-11
2.54048e-11
2.39313e-11
2.24745e-11
2.10538e-11
1.96799e-11
1.83018e-11
1.69349e-11
1.55948e-11
1.42973e-11
1.30612e-11
1.1872e-11
1.07397e-11
9.67693e-12
8.68481e-12
7.72788e-12
6.81432e-12
5.95306e-12
5.15407e-12
4.42183e-12
3.7578e-12
3.16022e-12
2.6267e-12
2.15713e-12
1.75051e-12
1.40588e-12
1.12263e-12
9.01046e-13
7.44068e-13
5.94922e-13
4.57376e-13
3.35674e-13
2.33324e-13
1.52184e-13
9.19911e-14
5.05001e-14
2.40981e-14
8.80309e-15
1.5065e-15
9.74592e-17
4.36635e-11
4.35929e-11
4.34518e-11
4.32397e-11
4.2956e-11
4.26001e-11
4.2171e-11
4.1668e-11
4.10903e-11
4.04376e-11
3.97103e-11
3.89095e-11
3.80376e-11
3.70984e-11
3.60982e-11
3.50133e-11
3.38697e-11
3.25883e-11
3.11947e-11
2.97138e-11
2.81709e-11
2.65916e-11
2.50025e-11
2.34309e-11
2.19057e-11
2.04443e-11
1.89821e-11
1.75358e-11
1.61218e-11
1.47569e-11
1.34607e-11
1.22177e-11
1.10369e-11
9.92938e-12
8.89499e-12
7.89683e-12
6.94541e-12
6.0504e-12
5.22167e-12
4.46835e-12
3.78828e-12
3.17736e-12
2.63288e-12
2.15594e-12
1.74535e-12
1.39983e-12
1.11817e-12
8.9934e-13
7.44011e-13
5.93427e-13
4.53501e-13
3.29805e-13
2.26485e-13
1.45562e-13
8.65922e-14
4.68338e-14
2.21453e-14
8.16989e-15
1.5082e-15
1.04242e-16
4.6109e-11
4.6036e-11
4.589e-11
4.56704e-11
4.53763e-11
4.50067e-11
4.456e-11
4.40347e-11
4.34295e-11
4.2743e-11
4.19745e-11
4.11241e-11
4.01931e-11
3.91832e-11
3.80956e-11
3.68982e-11
3.56352e-11
3.42384e-11
3.27281e-11
3.11289e-11
2.94673e-11
2.77706e-11
2.60662e-11
2.43829e-11
2.275e-11
2.11985e-11
1.96505e-11
1.81239e-11
1.66361e-11
1.52048e-11
1.38507e-11
1.25579e-11
1.13367e-11
1.02021e-11
9.10812e-12
8.06194e-12
7.07104e-12
6.14339e-12
5.28782e-12
4.51498e-12
3.82359e-12
3.19634e-12
2.64003e-12
2.15578e-12
1.74181e-12
1.39673e-12
1.11939e-12
9.07332e-13
7.49857e-13
5.94257e-13
4.50027e-13
3.2373e-13
2.19523e-13
1.39041e-13
8.13373e-14
4.32169e-14
2.01621e-14
7.5085e-15
1.51578e-15
1.1105e-16
4.86715e-11
4.85963e-11
4.84458e-11
4.82194e-11
4.79159e-11
4.75337e-11
4.70708e-11
4.65252e-11
4.58943e-11
4.51758e-11
4.43679e-11
4.34698e-11
4.24835e-11
4.14165e-11
4.01827e-11
3.88179e-11
3.73644e-11
3.58664e-11
3.42401e-11
3.25202e-11
3.07379e-11
2.89231e-11
2.71048e-11
2.53127e-11
2.35776e-11
2.19319e-11
2.02964e-11
1.86892e-11
1.71279e-11
1.56306e-11
1.42188e-11
1.2875e-11
1.1608e-11
1.04264e-11
9.28766e-12
8.20187e-12
7.17722e-12
6.22137e-12
5.34249e-12
4.55067e-12
3.84611e-12
3.20768e-12
2.64247e-12
2.15271e-12
1.73661e-12
1.39357e-12
1.12532e-12
9.38477e-13
7.60757e-13
5.94848e-13
4.4517e-13
3.16231e-13
2.11322e-13
1.31567e-13
7.54857e-14
3.93118e-14
1.80435e-14
6.71917e-15
1.44479e-15
1.14464e-16
5.13617e-11
5.12845e-11
5.113e-11
5.08973e-11
5.0585e-11
5.01913e-11
4.97137e-11
4.91492e-11
4.84946e-11
4.77459e-11
4.68988e-11
4.5948e-11
4.48873e-11
4.37124e-11
4.23289e-11
4.07929e-11
3.9162e-11
3.74977e-11
3.57269e-11
3.38738e-11
3.19662e-11
3.00325e-11
2.81016e-11
2.62031e-11
2.43679e-11
2.26296e-11
2.09084e-11
1.92222e-11
1.75889e-11
1.60272e-11
1.45603e-11
1.31718e-11
1.18752e-11
1.06294e-11
9.44091e-12
8.31605e-12
7.2607e-12
6.28075e-12
5.38289e-12
4.57579e-12
3.86055e-12
3.21266e-12
2.6398e-12
2.14541e-12
1.72733e-12
1.38442e-12
1.11782e-12
9.34113e-13
7.55682e-13
5.87566e-13
4.35883e-13
3.06093e-13
2.017e-13
1.235e-13
6.94485e-14
3.53259e-14
1.58402e-14
5.85676e-15
1.33968e-15
1.15465e-16
5.41915e-11
5.41124e-11
5.39541e-11
5.37157e-11
5.33954e-11
5.29912e-11
5.25e-11
5.19185e-11
5.12428e-11
5.04687e-11
4.95919e-11
4.86057e-11
4.7495e-11
4.61147e-11
4.45204e-11
4.27681e-11
4.09149e-11
3.90175e-11
3.71304e-11
3.51553e-11
3.31284e-11
3.1081e-11
2.90424e-11
2.7042e-11
2.51106e-11
2.32826e-11
2.14779e-11
1.97145e-11
1.80103e-11
1.63841e-11
1.48593e-11
1.34181e-11
1.20693e-11
1.07761e-11
9.54793e-12
8.3916e-12
7.31226e-12
6.31471e-12
5.40443e-12
4.58827e-12
3.86413e-12
3.20789e-12
2.62888e-12
2.13188e-12
1.71434e-12
1.37444e-12
1.11165e-12
9.2976e-13
7.4904e-13
5.77584e-13
4.23431e-13
2.92909e-13
1.89581e-13
1.13659e-13
6.23492e-14
3.0832e-14
1.34381e-14
4.8872e-15
1.167e-15
1.11526e-16
5.7173e-11
5.70923e-11
5.69306e-11
5.66871e-11
5.63597e-11
5.5946e-11
5.54422e-11
5.48441e-11
5.41466e-11
5.33454e-11
5.24402e-11
5.14421e-11
5.01179e-11
4.8517e-11
4.66975e-11
4.47204e-11
4.26484e-11
4.05457e-11
3.84807e-11
3.63644e-11
3.42153e-11
3.20576e-11
2.9917e-11
2.78206e-11
2.57979e-11
2.38832e-11
2.19973e-11
2.01587e-11
1.83866e-11
1.66979e-11
1.51162e-11
1.36334e-11
1.22157e-11
1.08712e-11
9.60568e-12
8.4229e-12
7.32573e-12
6.31735e-12
5.40304e-12
4.59257e-12
3.85342e-12
3.18845e-12
2.60528e-12
2.10858e-12
1.6955e-12
1.36411e-12
1.11202e-12
9.27017e-13
7.39361e-13
5.62382e-13
4.05637e-13
2.75465e-13
1.74576e-13
1.02128e-13
5.44356e-14
2.60263e-14
1.09299e-14
3.86874e-15
9.55145e-16
1.03138e-16
6.03181e-11
6.02359e-11
6.00715e-11
5.98237e-11
5.94907e-11
5.90694e-11
5.85556e-11
5.79428e-11
5.72218e-11
5.63793e-11
5.5397e-11
5.42571e-11
5.27261e-11
5.08902e-11
4.88265e-11
4.66064e-11
4.42972e-11
4.19628e-11
3.96629e-11
3.74511e-11
3.52011e-11
3.29465e-11
3.07147e-11
2.85311e-11
2.64232e-11
2.44244e-11
2.24577e-11
2.05444e-11
1.87146e-11
1.69616e-11
1.53015e-11
1.37499e-11
1.22778e-11
1.08933e-11
9.60033e-12
8.40031e-12
7.29342e-12
6.28023e-12
5.36374e-12
4.55223e-12
3.8114e-12
3.14542e-12
2.56351e-12
2.07154e-12
1.66774e-12
1.3531e-12
1.13634e-12
9.23803e-13
7.21737e-13
5.37924e-13
3.79515e-13
2.51292e-13
1.54641e-13
8.74107e-14
4.47417e-14
2.03737e-14
8.06414e-15
2.68717e-15
6.57869e-16
8.28138e-17
6.36375e-11
6.35541e-11
6.33871e-11
6.31358e-11
6.27983e-11
6.23719e-11
6.18527e-11
6.1235e-11
6.051e-11
5.96619e-11
5.86562e-11
5.71926e-11
5.53566e-11
5.32292e-11
5.08878e-11
4.84066e-11
4.58567e-11
4.33062e-11
4.08203e-11
3.84616e-11
3.60933e-11
3.37431e-11
3.14297e-11
2.91696e-11
2.69835e-11
2.49015e-11
2.28485e-11
2.0849e-11
1.89375e-11
1.71124e-11
1.53954e-11
1.37719e-11
1.22511e-11
1.08362e-11
9.52665e-12
8.32042e-12
7.21446e-12
6.20617e-12
5.29562e-12
4.48554e-12
3.74503e-12
3.08047e-12
2.50302e-12
2.01908e-12
1.6274e-12
1.32711e-12
1.11009e-12
8.91839e-13
6.84973e-13
4.99576e-13
3.43174e-13
2.19931e-13
1.30135e-13
7.01995e-14
3.39764e-14
1.44331e-14
5.23088e-15
1.57423e-15
3.61477e-16
5.16531e-17
6.71703e-11
6.70852e-11
6.69152e-11
6.66594e-11
6.63162e-11
6.58829e-11
6.53561e-11
6.4732e-11
6.40093e-11
6.31971e-11
6.18576e-11
6.00678e-11
5.79121e-11
5.54747e-11
5.28378e-11
5.00802e-11
4.72778e-11
4.45036e-11
4.1827e-11
3.93143e-11
3.68436e-11
3.44228e-11
3.20527e-11
2.97361e-11
2.74838e-11
2.53177e-11
2.31697e-11
2.10707e-11
1.90624e-11
1.71544e-11
1.53522e-11
1.36728e-11
1.21202e-11
1.06903e-11
9.37797e-12
8.17847e-12
7.08594e-12
6.09425e-12
5.20473e-12
4.38887e-12
3.64756e-12
2.98627e-12
2.41689e-12
1.94622e-12
1.57658e-12
1.31657e-12
1.07326e-12
8.41717e-13
6.28838e-13
4.43094e-13