/*--------------------------------*- C++ -*----------------------------------*\
| =========                 |                                                 |
| \\      /  F ield         | OpenFOAM: The Open Source CFD Toolbox           |
|  \\    /   O peration     | Version:  v1906                                 |
|   \\  /    A nd           | Web:      www.OpenFOAM.com                      |
|    \\/     M anipulation  |                                                 |
\*---------------------------------------------------------------------------*/
FoamFile
{
    version     2.0;
    format      ascii;
    class       volScalarField;
    location    "2.83";
    object      CH2O;
}
// * * * * * * * * * * * * * * * * * * * * * * * * * * * * * * * * * * * * * //

dimensions      [0 0 0 0 0 0 0];


internalField   nonuniform List<scalar> 
26400
(
4.93629e-09
4.92991e-09
4.9173e-09
4.89845e-09
4.87341e-09
4.84223e-09
4.80498e-09
4.76174e-09
4.7126e-09
4.65769e-09
4.59712e-09
4.53104e-09
4.45959e-09
4.38295e-09
4.30129e-09
4.21479e-09
4.12368e-09
4.02814e-09
3.92842e-09
3.82474e-09
3.71735e-09
3.60649e-09
3.49243e-09
3.37542e-09
3.25573e-09
3.13363e-09
3.00939e-09
2.88326e-09
2.75551e-09
2.62637e-09
2.49684e-09
2.3666e-09
2.23542e-09
2.1039e-09
1.9724e-09
1.84125e-09
1.71059e-09
1.58093e-09
1.45261e-09
1.32555e-09
1.20057e-09
1.07811e-09
9.58659e-10
8.42727e-10
7.30862e-10
6.23672e-10
5.21833e-10
4.26122e-10
3.37443e-10
2.56862e-10
1.85617e-10
1.25086e-10
7.66124e-11
4.11085e-11
1.83643e-11
6.3746e-12
1.56484e-12
2.32956e-13
1.47391e-14
3.56145e-16
5.17359e-09
5.1669e-09
5.15368e-09
5.13394e-09
5.1077e-09
5.07502e-09
5.03598e-09
4.99067e-09
4.93919e-09
4.88165e-09
4.81818e-09
4.74895e-09
4.6741e-09
4.59382e-09
4.50828e-09
4.41771e-09
4.3223e-09
4.22229e-09
4.11792e-09
4.00943e-09
3.89709e-09
3.78116e-09
3.66193e-09
3.53966e-09
3.41464e-09
3.28717e-09
3.15753e-09
3.02599e-09
2.89284e-09
2.75833e-09
2.62351e-09
2.48788e-09
2.35117e-09
2.21396e-09
2.07683e-09
1.94011e-09
1.80374e-09
1.66843e-09
1.53454e-09
1.40177e-09
1.27096e-09
1.14278e-09
1.01773e-09
8.96328e-10
7.79125e-10
6.66726e-10
5.59798e-10
4.59102e-10
3.6552e-10
2.80099e-10
2.04083e-10
1.38903e-10
8.60467e-11
4.671e-11
2.10613e-11
7.33218e-12
1.78997e-12
2.63869e-13
1.6691e-14
4.06721e-16
5.47376e-09
5.46666e-09
5.45262e-09
5.43165e-09
5.40378e-09
5.36908e-09
5.32762e-09
5.2795e-09
5.22482e-09
5.16372e-09
5.09634e-09
5.02284e-09
4.94339e-09
4.85819e-09
4.76743e-09
4.67135e-09
4.57017e-09
4.46414e-09
4.35353e-09
4.2386e-09
4.11964e-09
3.99695e-09
3.87081e-09
3.74154e-09
3.60946e-09
3.47487e-09
3.33809e-09
3.19944e-09
3.0592e-09
2.91767e-09
2.77597e-09
2.63338e-09
2.4896e-09
2.34521e-09
2.20085e-09
2.05707e-09
1.91356e-09
1.77102e-09
1.63011e-09
1.49021e-09
1.35216e-09
1.21691e-09
1.08499e-09
9.56925e-10
8.33289e-10
7.14683e-10
6.01769e-10
4.95295e-10
3.96127e-10
3.05296e-10
2.24047e-10
1.53851e-10
9.63318e-11
5.29283e-11
2.41599e-11
8.47726e-12
2.06649e-12
3.02267e-13
1.90414e-14
4.65105e-16
5.80235e-09
5.79478e-09
5.77982e-09
5.75746e-09
5.72776e-09
5.69077e-09
5.64658e-09
5.59529e-09
5.53702e-09
5.4719e-09
5.40009e-09
5.32177e-09
5.23713e-09
5.14636e-09
5.04971e-09
4.94741e-09
4.83972e-09
4.72691e-09
4.60926e-09
4.48709e-09
4.36069e-09
4.23039e-09
4.09652e-09
3.95943e-09
3.81944e-09
3.67692e-09
3.5322e-09
3.38563e-09
3.23755e-09
3.08826e-09
2.939e-09
2.78881e-09
2.63735e-09
2.48523e-09
2.33309e-09
2.18164e-09
2.03044e-09
1.88021e-09
1.73175e-09
1.58428e-09
1.43863e-09
1.29578e-09
1.15653e-09
1.02142e-09
8.91023e-10
7.65932e-10
6.468e-10
5.34354e-10
4.29433e-10
3.33035e-10
2.46375e-10
1.70932e-10
1.08416e-10
6.05016e-11
2.80922e-11
9.95229e-12
2.4187e-12
3.47992e-13
2.17225e-14
5.33829e-16
6.15339e-09
6.14531e-09
6.12935e-09
6.10551e-09
6.07382e-09
6.03436e-09
5.98721e-09
5.93248e-09
5.87029e-09
5.8008e-09
5.72417e-09
5.6406e-09
5.55028e-09
5.45346e-09
5.35037e-09
5.24129e-09
5.12649e-09
5.00629e-09
4.88098e-09
4.75091e-09
4.61642e-09
4.47785e-09
4.33558e-09
4.18998e-09
4.04143e-09
3.89031e-09
3.737e-09
3.58189e-09
3.42534e-09
3.26771e-09
3.11031e-09
2.95199e-09
2.79236e-09
2.63205e-09
2.47173e-09
2.31212e-09
2.15282e-09
1.99454e-09
1.83808e-09
1.68265e-09
1.52906e-09
1.37825e-09
1.23132e-09
1.08883e-09
9.5137e-10
8.19523e-10
6.9393e-10
5.75296e-10
4.6443e-10
3.62296e-10
2.70083e-10
1.89274e-10
1.21657e-10
6.9137e-11
3.29768e-11
1.1829e-11
2.85971e-12
4.04794e-13
2.50023e-14
6.16146e-16
6.52674e-09
6.51813e-09
6.50113e-09
6.47571e-09
6.44191e-09
6.39979e-09
6.34947e-09
6.29105e-09
6.22466e-09
6.15045e-09
6.06861e-09
5.97934e-09
5.88289e-09
5.77949e-09
5.66942e-09
5.55298e-09
5.43048e-09
5.30224e-09
5.16863e-09
5.03001e-09
4.88674e-09
4.73923e-09
4.58787e-09
4.43308e-09
4.27528e-09
4.11488e-09
3.95232e-09
3.788e-09
3.62235e-09
3.45576e-09
3.28965e-09
3.12264e-09
2.95431e-09
2.78532e-09
2.61636e-09
2.44817e-09
2.28038e-09
2.11368e-09
1.94888e-09
1.7852e-09
1.62345e-09
1.46456e-09
1.30959e-09
1.15946e-09
1.01473e-09
8.75973e-10
7.43808e-10
6.18905e-10
5.02021e-10
3.94064e-10
2.96183e-10
2.09849e-10
1.36911e-10
7.95485e-11
3.99097e-11
1.43326e-11
3.4262e-12
4.72984e-13
2.87392e-14
7.08089e-16
6.92218e-09
6.91313e-09
6.89522e-09
6.86842e-09
6.83269e-09
6.78803e-09
6.73453e-09
6.67228e-09
6.60141e-09
6.52211e-09
6.43461e-09
6.33917e-09
6.23605e-09
6.12552e-09
6.00788e-09
5.88346e-09
5.7526e-09
5.61566e-09
5.47305e-09
5.32515e-09
5.17238e-09
5.01519e-09
4.854e-09
4.68928e-09
4.52148e-09
4.35108e-09
4.17853e-09
4.0043e-09
3.82886e-09
3.65264e-09
3.47718e-09
3.30089e-09
3.1233e-09
2.9451e-09
2.76703e-09
2.58984e-09
2.41317e-09
2.23772e-09
2.06417e-09
1.89183e-09
1.72156e-09
1.55428e-09
1.39102e-09
1.23299e-09
1.08076e-09
9.34909e-10
7.96015e-10
6.64705e-10
5.4167e-10
4.27708e-10
3.23999e-10
2.32008e-10
1.536e-10
9.10956e-11
4.71586e-11
1.71399e-11
4.06905e-12
5.44684e-13
3.24983e-14
8.00509e-16
7.33825e-09
7.32887e-09
7.31037e-09
7.2828e-09
7.24551e-09
7.19862e-09
7.14217e-09
7.07626e-09
7.00105e-09
6.9167e-09
6.82343e-09
6.72151e-09
6.61123e-09
6.49295e-09
6.36708e-09
6.23399e-09
6.09405e-09
5.94768e-09
5.79529e-09
5.63733e-09
5.47427e-09
5.30658e-09
5.13475e-09
4.95928e-09
4.78068e-09
4.59947e-09
4.41615e-09
4.23124e-09
4.04524e-09
3.85865e-09
3.67315e-09
3.48691e-09
3.29943e-09
3.11146e-09
2.92378e-09
2.7372e-09
2.55145e-09
2.36732e-09
2.18409e-09
2.0025e-09
1.82332e-09
1.64744e-09
1.47582e-09
1.30962e-09
1.14974e-09
9.9671e-10
8.51077e-10
7.13406e-10
5.84319e-10
4.64051e-10
3.54296e-10
2.56506e-10
1.7251e-10
1.04625e-10
5.58323e-11
2.06427e-11
4.87746e-12
6.30151e-13
3.68131e-14
9.06349e-16
7.78125e-09
7.77112e-09
7.75114e-09
7.72134e-09
7.68182e-09
7.63274e-09
7.57331e-09
7.50371e-09
7.42408e-09
7.33459e-09
7.23546e-09
7.12696e-09
7.00938e-09
6.88309e-09
6.74849e-09
6.60602e-09
6.45621e-09
6.29958e-09
6.13658e-09
5.96771e-09
5.79348e-09
5.61442e-09
5.43106e-09
5.24396e-09
5.05368e-09
4.86077e-09
4.66581e-09
4.46936e-09
4.27197e-09
4.0742e-09
3.87788e-09
3.68093e-09
3.48283e-09
3.28438e-09
3.08639e-09
2.88969e-09
2.69402e-09
2.50011e-09
2.30731e-09
2.11642e-09
1.92824e-09
1.74364e-09
1.56355e-09
1.38908e-09
1.22144e-09
1.06118e-09
9.08826e-10
7.64837e-10
6.29498e-10
5.02656e-10
3.86713e-10
2.83134e-10
1.93667e-10
1.2044e-10
6.61086e-11
2.49164e-11
5.85772e-12
7.22046e-13
4.07998e-14
9.90913e-16
8.25326e-09
8.2423e-09
8.22068e-09
8.18842e-09
8.14562e-09
8.09245e-09
8.02909e-09
7.95581e-09
7.87164e-09
7.77687e-09
7.67169e-09
7.55638e-09
7.43124e-09
7.29665e-09
7.15301e-09
7.00081e-09
6.84058e-09
6.67287e-09
6.49834e-09
6.31762e-09
6.13127e-09
5.93987e-09
5.74402e-09
5.54432e-09
5.34138e-09
5.13583e-09
4.92828e-09
4.71936e-09
4.50967e-09
4.29982e-09
4.09181e-09
3.88334e-09
3.67385e-09
3.46423e-09
3.25535e-09
3.04811e-09
2.84243e-09
2.63772e-09
2.43469e-09
2.23405e-09
2.03656e-09
1.84303e-09
1.65435e-09
1.47159e-09
1.29602e-09
1.12853e-09
9.69747e-10
8.20377e-10
6.77769e-10
5.4397e-10
4.21749e-10
3.12525e-10
2.18049e-10
1.40224e-10
7.87139e-11
3.01706e-11
7.06505e-12
8.23723e-13
4.47639e-14
1.06551e-15
8.75674e-09
8.74489e-09
8.72151e-09
8.68664e-09
8.64037e-09
8.58286e-09
8.51433e-09
8.435e-09
8.34515e-09
8.24511e-09
8.13373e-09
8.01132e-09
7.87824e-09
7.73491e-09
7.58177e-09
7.41935e-09
7.24819e-09
7.06889e-09
6.88213e-09
6.68861e-09
6.4891e-09
6.28432e-09
6.07493e-09
5.86158e-09
5.64495e-09
5.42571e-09
5.20455e-09
4.98213e-09
4.75913e-09
4.5362e-09
4.31551e-09
4.09455e-09
3.87273e-09
3.65104e-09
3.43051e-09
3.21125e-09
2.99432e-09
2.7789e-09
2.56563e-09
2.35515e-09
2.1482e-09
1.94556e-09
1.74811e-09
1.55686e-09
1.37304e-09
1.19789e-09
1.03206e-09
8.7626e-10
7.27343e-10
5.87252e-10
4.58993e-10
3.44473e-10
2.46068e-10
1.6808e-10
9.39746e-11
3.63159e-11
8.43947e-12
9.19492e-13
4.73202e-14
1.08268e-15
9.29415e-09
9.28136e-09
9.25611e-09
9.21845e-09
9.1685e-09
9.10644e-09
9.0325e-09
8.94696e-09
8.85014e-09
8.74241e-09
8.62416e-09
8.49402e-09
8.35239e-09
8.19969e-09
8.03642e-09
7.86313e-09
7.68039e-09
7.48886e-09
7.28922e-09
7.08223e-09
6.86868e-09
6.64941e-09
6.42535e-09
6.19724e-09
5.96579e-09
5.73176e-09
5.49588e-09
5.25888e-09
5.02148e-09
4.7844e-09
4.54992e-09
4.31529e-09
4.07988e-09
3.84469e-09
3.61071e-09
3.37797e-09
3.1505e-09
2.92459e-09
2.70098e-09
2.48044e-09
2.26375e-09
2.05171e-09
1.84522e-09
1.64527e-09
1.45305e-09
1.27001e-09
1.09697e-09
9.34669e-10
7.79508e-10
6.33323e-10
4.98887e-10
3.78644e-10
2.74617e-10
1.9042e-10
1.08765e-10
4.28664e-11
9.94598e-12
1.01024e-12
4.9346e-14
1.06859e-15
9.86824e-09
9.85441e-09
9.82713e-09
9.78643e-09
9.73246e-09
9.66542e-09
9.58555e-09
9.49318e-09
9.38866e-09
9.27238e-09
9.1448e-09
9.00642e-09
8.85565e-09
8.69296e-09
8.51888e-09
8.33401e-09
8.13897e-09
7.93445e-09
7.72119e-09
7.49997e-09
7.27165e-09
7.0371e-09
6.79728e-09
6.55318e-09
6.30573e-09
6.05573e-09
5.80397e-09
5.55124e-09
5.29831e-09
5.04597e-09
4.79664e-09
4.54735e-09
4.29744e-09
4.04804e-09
3.8003e-09
3.55454e-09
3.31491e-09
3.07732e-09
2.84246e-09
2.61109e-09
2.38399e-09
2.162e-09
1.94601e-09
1.73702e-09
1.53618e-09
1.34489e-09
1.16439e-09
9.95453e-10
8.34076e-10
6.82043e-10
5.41992e-10
4.1701e-10
3.08612e-10
2.16653e-10
1.26059e-10
5.08053e-11
1.17583e-11
1.10582e-12
5.13513e-14
1.04038e-15
1.04822e-08
1.04672e-08
1.04377e-08
1.03938e-08
1.03354e-08
1.0263e-08
1.01767e-08
1.00769e-08
9.964e-09
9.8384e-09
9.70062e-09
9.5512e-09
9.39073e-09
9.21743e-09
9.03185e-09
8.83464e-09
8.62648e-09
8.40811e-09
8.18034e-09
7.944e-09
7.7e-09
7.44928e-09
7.19283e-09
6.93171e-09
6.66699e-09
6.39978e-09
6.13091e-09
5.86124e-09
5.59159e-09
5.32277e-09
5.05735e-09
4.79208e-09
4.52623e-09
4.26087e-09
3.99706e-09
3.73886e-09
3.48701e-09
3.23731e-09
2.99061e-09
2.74774e-09
2.50957e-09
2.27699e-09
2.05091e-09
1.83236e-09
1.62246e-09
1.42257e-09
1.2343e-09
1.05848e-09
8.90797e-10
7.33065e-10
5.8803e-10
4.60247e-10
3.5423e-10
2.47335e-10
1.45784e-10
6.07805e-11
1.39965e-11
1.28388e-12
5.59264e-14
1.04653e-15
1.11394e-08
1.11233e-08
1.10915e-08
1.1044e-08
1.0981e-08
1.09028e-08
1.08097e-08
1.07019e-08
1.058e-08
1.04444e-08
1.02956e-08
1.01343e-08
9.961e-09
9.77647e-09
9.57871e-09
9.3684e-09
9.14629e-09
8.91318e-09
8.66993e-09
8.41748e-09
8.1568e-09
7.88891e-09
7.61487e-09
7.33578e-09
7.05278e-09
6.76703e-09
6.47976e-09
6.19187e-09
5.90426e-09
5.61779e-09
5.33519e-09
5.05297e-09
4.77044e-09
4.48883e-09
4.20947e-09
3.93656e-09
3.67076e-09
3.40753e-09
3.14775e-09
2.89229e-09
2.64205e-09
2.39796e-09
2.16097e-09
1.93213e-09
1.71257e-09
1.50362e-09
1.30691e-09
1.12364e-09
9.49182e-10
7.85216e-10
6.34212e-10
5.00426e-10
3.88729e-10
2.75524e-10
1.66652e-10
7.29728e-11
1.69275e-11
1.54819e-12
6.40288e-14
1.12161e-15
1.18437e-08
1.18264e-08
1.17921e-08
1.17409e-08
1.1673e-08
1.15887e-08
1.14883e-08
1.13722e-08
1.12407e-08
1.10945e-08
1.09341e-08
1.07601e-08
1.05731e-08
1.0374e-08
1.01635e-08
9.93943e-09
9.70259e-09
9.45386e-09
9.19417e-09
8.92455e-09
8.64606e-09
8.35987e-09
8.06713e-09
7.76904e-09
7.46679e-09
7.16159e-09
6.85466e-09
6.54725e-09
6.24036e-09
5.93486e-09
5.63361e-09
5.33279e-09
5.0316e-09
4.7312e-09
4.43661e-09
4.14868e-09
3.86818e-09
3.59048e-09
3.31656e-09
3.04741e-09
2.784e-09
2.52731e-09
2.27839e-09
2.03829e-09
1.80818e-09
1.58939e-09
1.38352e-09
1.19222e-09
1.01068e-09
8.40442e-10
6.83666e-10
5.44018e-10
4.26684e-10
3.07632e-10
1.91847e-10
8.91151e-11
2.15462e-11
2.03192e-12
8.39333e-14
1.42874e-15
1.25995e-08
1.25808e-08
1.25439e-08
1.24889e-08
1.2416e-08
1.23253e-08
1.22174e-08
1.20925e-08
1.19511e-08
1.17938e-08
1.16212e-08
1.14338e-08
1.12324e-08
1.10178e-08
1.07908e-08
1.05524e-08
1.03001e-08
1.00349e-08
9.75774e-09
9.46984e-09
9.17239e-09
8.8667e-09
8.55419e-09
8.23617e-09
7.91388e-09
7.58851e-09
7.26127e-09
6.93335e-09
6.60602e-09
6.28032e-09
5.95929e-09
5.63891e-09
5.31847e-09
4.99947e-09
4.68709e-09
4.38205e-09
4.08507e-09
3.79127e-09
3.5017e-09
3.21739e-09
2.93938e-09
2.66874e-09
2.40653e-09
2.15388e-09
1.91197e-09
1.68213e-09
1.46596e-09
1.26552e-09
1.07649e-09
8.99888e-10
7.37438e-10
5.92185e-10
4.69415e-10
3.45209e-10
2.23386e-10
1.11688e-10
2.97179e-11
3.06508e-12
1.40977e-13
2.48645e-15
1.34111e-08
1.33911e-08
1.33516e-08
1.32927e-08
1.32145e-08
1.31175e-08
1.30019e-08
1.28681e-08
1.27166e-08
1.2548e-08
1.23629e-08
1.21619e-08
1.19457e-08
1.17151e-08
1.14711e-08
1.12143e-08
1.0946e-08
1.06634e-08
1.03676e-08
1.00599e-08
9.74145e-09
9.41355e-09
9.07982e-09
8.74113e-09
8.39842e-09
8.05274e-09
7.70514e-09
7.35669e-09
7.00847e-09
6.66153e-09
6.31915e-09
5.97705e-09
5.63435e-09
5.29714e-09
4.96642e-09
4.64314e-09
4.32819e-09
4.01665e-09
3.70971e-09
3.40851e-09
3.11418e-09
2.82784e-09
2.55061e-09
2.28365e-09
2.02813e-09
1.78531e-09
1.55657e-09
1.34352e-09
1.14749e-09
9.64186e-10
7.95516e-10
6.4428e-10
5.15603e-10
3.86784e-10
2.60542e-10
1.41516e-10
4.37749e-11
5.39953e-12
3.44677e-13
7.1327e-15
1.42829e-08
1.42616e-08
1.42195e-08
1.41567e-08
1.40734e-08
1.397e-08
1.38467e-08
1.37041e-08
1.35427e-08
1.33629e-08
1.31655e-08
1.2951e-08
1.27202e-08
1.24738e-08
1.22127e-08
1.19377e-08
1.16497e-08
1.13498e-08
1.1035e-08
1.07065e-08
1.03682e-08
1.00213e-08
9.66728e-09
9.3073e-09
8.94259e-09
8.57436e-09
8.20382e-09
7.8322e-09
7.46069e-09
7.09052e-09
6.72529e-09
6.36063e-09
5.99593e-09
5.6374e-09
5.2859e-09
4.94231e-09
4.6075e-09
4.27637e-09
3.95014e-09
3.63002e-09
3.31718e-09
3.01282e-09
2.71812e-09
2.4343e-09
2.16263e-09
1.90443e-09
1.66113e-09
1.43438e-09
1.2261e-09
1.03216e-09
8.54361e-10
6.95117e-10
5.5863e-10
4.24824e-10
2.95617e-10
1.73264e-10
6.61492e-11
1.1375e-11
1.28793e-12
3.57159e-14
1.52193e-08
1.51967e-08
1.5152e-08
1.50853e-08
1.4997e-08
1.48872e-08
1.47565e-08
1.46053e-08
1.44341e-08
1.42436e-08
1.40343e-08
1.3807e-08
1.35623e-08
1.3301e-08
1.30238e-08
1.27315e-08
1.2425e-08
1.2105e-08
1.17723e-08
1.14266e-08
1.10692e-08
1.07017e-08
1.03256e-08
9.94265e-09
9.55436e-09
9.16208e-09
8.76712e-09
8.37078e-09
7.97431e-09
7.57892e-09
7.18836e-09
6.79776e-09
6.41164e-09
6.03122e-09
5.65766e-09
5.29206e-09
4.93556e-09
4.58328e-09
4.23626e-09
3.89562e-09
3.56251e-09
3.23815e-09
2.92377e-09
2.62065e-09
2.3301e-09
2.05348e-09
1.79225e-09
1.54802e-09
1.3227e-09
1.11456e-09
9.23972e-10
7.52973e-10
6.04578e-10
4.64327e-10
3.32746e-10
2.10687e-10
1.03393e-10
3.01228e-11
6.22018e-12
2.66916e-13
1.62324e-08
1.62085e-08
1.61612e-08
1.60907e-08
1.59972e-08
1.58813e-08
1.57432e-08
1.55836e-08
1.54031e-08
1.52022e-08
1.49818e-08
1.47424e-08
1.44848e-08
1.42099e-08
1.39185e-08
1.36113e-08
1.32891e-08
1.2953e-08
1.26014e-08
1.22358e-08
1.18577e-08
1.14686e-08
1.10701e-08
1.06637e-08
1.02512e-08
9.83428e-09
9.41452e-09
8.99328e-09
8.57191e-09
8.15173e-09
7.73684e-09
7.32256e-09
6.9126e-09
6.50842e-09
6.11111e-09
5.72161e-09
5.34079e-09
4.96942e-09
4.60268e-09
4.24187e-09
3.88827e-09
3.54319e-09
3.20795e-09
2.88388e-09
2.57235e-09
2.27479e-09
1.99258e-09
1.72721e-09
1.48045e-09
1.25417e-09
1.04706e-09
8.599e-10
6.94122e-10
5.50213e-10
4.17553e-10
2.97251e-10
1.89078e-10
1.02185e-10
3.2233e-11
1.82694e-12
1.73221e-08
1.72952e-08
1.72419e-08
1.71627e-08
1.70577e-08
1.69274e-08
1.67726e-08
1.65938e-08
1.63918e-08
1.61673e-08
1.59213e-08
1.56545e-08
1.53678e-08
1.50622e-08
1.47385e-08
1.43978e-08
1.40408e-08
1.36653e-08
1.32728e-08
1.28652e-08
1.2444e-08
1.2011e-08
1.1568e-08
1.11168e-08
1.06594e-08
1.01977e-08
9.73352e-09
9.26866e-09
8.80447e-09
8.3423e-09
7.8862e-09
7.43651e-09
6.99214e-09
6.555e-09
6.12651e-09
5.70783e-09
5.30008e-09
4.89722e-09
4.50082e-09
4.11246e-09
3.73366e-09
3.36591e-09
3.01071e-09
2.66956e-09
2.34406e-09
2.03599e-09
1.74755e-09
1.48113e-09
1.23923e-09
1.0196e-09
8.22895e-10
6.51541e-10
5.07837e-10
3.74678e-10
2.5421e-10
1.49658e-10
6.56689e-11
1.53083e-11
1.34232e-12
3.07844e-14
1.84791e-08
1.84485e-08
1.83883e-08
1.82985e-08
1.81798e-08
1.80327e-08
1.78581e-08
1.76569e-08
1.743e-08
1.71783e-08
1.6903e-08
1.6605e-08
1.62855e-08
1.59454e-08
1.55859e-08
1.52078e-08
1.48079e-08
1.43878e-08
1.39497e-08
1.34953e-08
1.30266e-08
1.25457e-08
1.20545e-08
1.15553e-08
1.105e-08
1.0541e-08
1.00304e-08
9.52052e-09
9.01292e-09
8.50919e-09
8.01371e-09
7.52673e-09
7.04732e-09
6.57759e-09
6.11912e-09
5.67307e-09
5.23267e-09
4.79988e-09
4.37659e-09
3.96463e-09
3.56585e-09
3.18204e-09
2.81502e-09
2.46662e-09
2.13872e-09
1.83326e-09
1.55223e-09
1.2976e-09
1.06705e-09
8.6253e-10
6.85787e-10
5.41613e-10
4.1045e-10
2.92834e-10
1.90336e-10
1.05379e-10
4.26297e-11
9.10298e-12
7.14116e-13
1.4925e-14
1.97016e-08
1.96674e-08
1.96e-08
1.94996e-08
1.93667e-08
1.92021e-08
1.90066e-08
1.87813e-08
1.85275e-08
1.82464e-08
1.79395e-08
1.76084e-08
1.72543e-08
1.68783e-08
1.64816e-08
1.60594e-08
1.56138e-08
1.5147e-08
1.4661e-08
1.41581e-08
1.36404e-08
1.31102e-08
1.25698e-08
1.20214e-08
1.14675e-08
1.09104e-08
1.03529e-08
9.79736e-09
9.24611e-09
8.70091e-09
8.16652e-09
7.64301e-09
7.12972e-09
6.62913e-09
6.14297e-09
5.66306e-09
5.19168e-09
4.73104e-09
4.28324e-09
3.85032e-09
3.43424e-09
3.03699e-09
2.6605e-09
2.30681e-09
1.97803e-09
1.67651e-09
1.40492e-09
1.16008e-09
9.43001e-10
7.54664e-10
5.96019e-10
4.70896e-10
3.55801e-10
2.51879e-10
1.61116e-10
8.64935e-11
3.38845e-11
6.87946e-12
4.94169e-13
9.11304e-15
2.09823e-08
2.09444e-08
2.08698e-08
2.07585e-08
2.06113e-08
2.0429e-08
2.02125e-08
1.99633e-08
1.96826e-08
1.93721e-08
1.90333e-08
1.8668e-08
1.82782e-08
1.78656e-08
1.7424e-08
1.69557e-08
1.64631e-08
1.59483e-08
1.54138e-08
1.48617e-08
1.42945e-08
1.37145e-08
1.31243e-08
1.25264e-08
1.19234e-08
1.1318e-08
1.07129e-08
1.01112e-08
9.51571e-09
8.92857e-09
8.35502e-09
7.79499e-09
7.24842e-09
6.71875e-09
6.19632e-09
5.6835e-09
5.18267e-09
4.69614e-09
4.22618e-09
3.77495e-09
3.34455e-09
2.93705e-09
2.55447e-09
2.19885e-09
1.87228e-09
1.57695e-09
1.31522e-09
1.08274e-09
8.79828e-10
7.06352e-10
5.61937e-10
4.48234e-10
3.40773e-10
2.41723e-10
1.54522e-10
8.30961e-11
3.33396e-11
7.16554e-12
5.26003e-13
9.98039e-15
2.2317e-08
2.22754e-08
2.21933e-08
2.20708e-08
2.19088e-08
2.1708e-08
2.14698e-08
2.11958e-08
2.08877e-08
2.05473e-08
2.01765e-08
1.97774e-08
1.9352e-08
1.88945e-08
1.84073e-08
1.78927e-08
1.73529e-08
1.67902e-08
1.62069e-08
1.56056e-08
1.49886e-08
1.43587e-08
1.37186e-08
1.3071e-08
1.24186e-08
1.17644e-08
1.11114e-08
1.04627e-08
9.82176e-09
9.19132e-09
8.57707e-09
7.97843e-09
7.39529e-09
6.83058e-09
6.27449e-09
5.73041e-09
5.20135e-09
4.69e-09
4.19882e-09
3.73011e-09
3.28602e-09
2.86861e-09
2.47994e-09
2.12206e-09
1.79711e-09
1.50722e-09
1.25429e-09
1.03345e-09
8.44772e-10
6.86474e-10
5.54705e-10
4.49359e-10
3.44727e-10
2.45856e-10
1.58066e-10
8.60558e-11
3.56468e-11
8.35075e-12
6.56129e-13
1.25592e-14
2.37033e-08
2.3658e-08
2.35685e-08
2.34347e-08
2.32574e-08
2.30371e-08
2.27753e-08
2.24742e-08
2.21376e-08
2.17666e-08
2.13629e-08
2.09294e-08
2.04608e-08
1.99596e-08
1.94279e-08
1.88679e-08
1.82817e-08
1.76717e-08
1.704e-08
1.63893e-08
1.57223e-08
1.50422e-08
1.43519e-08
1.36544e-08
1.29527e-08
1.22495e-08
1.15478e-08
1.08513e-08
1.01635e-08
9.48842e-09
8.83259e-09
8.19545e-09
7.57866e-09
6.97171e-09
6.37812e-09
5.80106e-09
5.24331e-09
4.70742e-09
4.19573e-09
3.71044e-09
3.25361e-09
2.82724e-09
2.43331e-09
2.07395e-09
1.7516e-09
1.46924e-09
1.22301e-09
1.01406e-09
8.42389e-10
7.0472e-10
5.83982e-10
4.78737e-10
3.68875e-10
2.63967e-10
1.71519e-10
9.64362e-11
4.26331e-11
1.14367e-11
1.05111e-12
2.36573e-14
2.51379e-08
2.50897e-08
2.49935e-08
2.48493e-08
2.46572e-08
2.44169e-08
2.41275e-08
2.37965e-08
2.34342e-08
2.30328e-08
2.25939e-08
2.21188e-08
2.16088e-08
2.10657e-08
2.04911e-08
1.98871e-08
1.92556e-08
1.85989e-08
1.79191e-08
1.72178e-08
1.64994e-08
1.57678e-08
1.50266e-08
1.42794e-08
1.35295e-08
1.2777e-08
1.20257e-08
1.12797e-08
1.05431e-08
9.81891e-09
9.11508e-09
8.432e-09
7.77197e-09
7.125e-09
6.49564e-09
5.88719e-09
5.30209e-09
4.74262e-09
4.21106e-09
3.70958e-09
3.24011e-09
2.80445e-09
2.40438e-09
2.04183e-09
1.71912e-09
1.43953e-09
1.19995e-09
1.00321e-09
8.53162e-10
7.61599e-10
6.50364e-10
5.28214e-10
4.0505e-10
2.90399e-10
1.91588e-10
1.1279e-10
5.51689e-11
1.82798e-11
2.32746e-12
7.88253e-14
2.6626e-08
2.65745e-08
2.64728e-08
2.6321e-08
2.61198e-08
2.587e-08
2.55727e-08
2.52293e-08
2.48414e-08
2.44103e-08
2.39379e-08
2.34257e-08
2.28758e-08
2.22903e-08
2.16711e-08
2.10206e-08
2.0341e-08
1.96342e-08
1.88992e-08
1.81407e-08
1.73636e-08
1.65729e-08
1.57734e-08
1.49689e-08
1.41633e-08
1.33557e-08
1.255e-08
1.17504e-08
1.09606e-08
1.01845e-08
9.42797e-09
8.69321e-09
7.97962e-09
7.28929e-09
6.62423e-09
5.98636e-09
5.37509e-09
4.79238e-09
4.24104e-09
3.72373e-09
3.24202e-09
2.79744e-09
2.39149e-09
2.02572e-09
1.7017e-09
1.42106e-09
1.18538e-09
9.96365e-10
8.5605e-10
7.69038e-10
6.55272e-10
5.27767e-10
3.99745e-10
2.82492e-10
1.83746e-10
1.07065e-10
5.23721e-11
1.77708e-11
2.36219e-12
8.56204e-14
2.82525e-08
2.81971e-08
2.8088e-08
2.79251e-08
2.77091e-08
2.74409e-08
2.71217e-08
2.67526e-08
2.63353e-08
2.58713e-08
2.53625e-08
2.48111e-08
2.42192e-08
2.35892e-08
2.29237e-08
2.22252e-08
2.14967e-08
2.07332e-08
1.99396e-08
1.91206e-08
1.82817e-08
1.74284e-08
1.65667e-08
1.57016e-08
1.48376e-08
1.39732e-08
1.31125e-08
1.22593e-08
1.14178e-08
1.05917e-08
9.78855e-09
9.00944e-09
8.25408e-09
7.52522e-09
6.82482e-09
6.15426e-09
5.51267e-09
4.90308e-09
4.32769e-09
3.78946e-09
3.28996e-09
2.83065e-09
2.41305e-09
2.03873e-09
1.70941e-09
1.42703e-09
1.19369e-09
1.0113e-09
8.79488e-10
7.87891e-10
6.64226e-10
5.27819e-10
3.93982e-10
2.74167e-10
1.75552e-10
1.0087e-10
4.90784e-11
1.71049e-11
2.39767e-12
9.08225e-14
2.99698e-08
2.99103e-08
2.97929e-08
2.96177e-08
2.93854e-08
2.9097e-08
2.87536e-08
2.83566e-08
2.79076e-08
2.74085e-08
2.68613e-08
2.62683e-08
2.5632e-08
2.4955e-08
2.42402e-08
2.34902e-08
2.27073e-08
2.18857e-08
2.1031e-08
2.01491e-08
1.9246e-08
1.83278e-08
1.74007e-08
1.64712e-08
1.55441e-08
1.46234e-08
1.3707e-08
1.27994e-08
1.19052e-08
1.10285e-08
1.01779e-08
9.35384e-09
8.55622e-09
7.78861e-09
7.0533e-09
6.34723e-09
5.67319e-09
5.03408e-09
4.43293e-09
3.87197e-09
3.35294e-09
2.87731e-09
2.44655e-09
2.06235e-09
1.72665e-09
1.44193e-09
1.21181e-09
1.04234e-09
9.44632e-10
8.19577e-10
6.76915e-10
5.29057e-10
3.88586e-10
2.65935e-10
1.67459e-10
9.48591e-11
4.5886e-11
1.62198e-11
2.36042e-12
9.49377e-14
3.17741e-08
3.17102e-08
3.15841e-08
3.13959e-08
3.11465e-08
3.08368e-08
3.0468e-08
3.00416e-08
2.95594e-08
2.90233e-08
2.84356e-08
2.77988e-08
2.71158e-08
2.63897e-08
2.56242e-08
2.48233e-08
2.39778e-08
2.30924e-08
2.21727e-08
2.12247e-08
2.02549e-08
1.92698e-08
1.82759e-08
1.72802e-08
1.62895e-08
1.53083e-08
1.4333e-08
1.33686e-08
1.24198e-08
1.14909e-08
1.05909e-08
9.72035e-09
8.87869e-09
8.0702e-09
7.29707e-09
6.5554e-09
5.84831e-09
5.17895e-09
4.55058e-09
3.96558e-09
3.42589e-09
2.93286e-09
2.48778e-09
2.09249e-09
1.74893e-09
1.45941e-09
1.22715e-09
1.05751e-09
9.61445e-10
8.3168e-10
6.81916e-10
5.27431e-10
3.82442e-10
2.57844e-10
1.59707e-10
8.90205e-11
4.26509e-11
1.53414e-11
2.40448e-12
1.02308e-13
3.36695e-08
3.36009e-08
3.34657e-08
3.3264e-08
3.29967e-08
3.26646e-08
3.22693e-08
3.18122e-08
3.12952e-08
3.07203e-08
3.00898e-08
2.94065e-08
2.86732e-08
2.78935e-08
2.70713e-08
2.62037e-08
2.52981e-08
2.43483e-08
2.33615e-08
2.2345e-08
2.13058e-08
2.02512e-08
1.91884e-08
1.81247e-08
1.70674e-08
1.60231e-08
1.49865e-08
1.3963e-08
1.29576e-08
1.19748e-08
1.1024e-08
1.01057e-08
9.21904e-09
8.36826e-09
7.55523e-09
6.77595e-09
6.03403e-09
5.33286e-09
4.67578e-09
4.06609e-09
3.50517e-09
2.99405e-09
2.53415e-09
2.12773e-09
1.77689e-09
1.48399e-09
1.25175e-09
1.08342e-09
9.8593e-10
8.48415e-10
6.89225e-10
5.26583e-10
3.76149e-10
2.49219e-10
1.51511e-10
8.29788e-11
3.9286e-11
1.42355e-11
2.40941e-12
1.09687e-13
3.56627e-08
3.55893e-08
3.54446e-08
3.52286e-08
3.49424e-08
3.4587e-08
3.41639e-08
3.36746e-08
3.31211e-08
3.25055e-08
3.18302e-08
3.10979e-08
3.03118e-08
2.94751e-08
2.85909e-08
2.76557e-08
2.66795e-08
2.56584e-08
2.45993e-08
2.35099e-08
2.23976e-08
2.12704e-08
2.01358e-08
1.90016e-08
1.78754e-08
1.67651e-08
1.56647e-08
1.45799e-08
1.35158e-08
1.24773e-08
1.14741e-08
1.05068e-08
9.57469e-09
8.68272e-09
7.8253e-09
7.00572e-09
6.22726e-09
5.49317e-09
4.80676e-09
4.17158e-09
3.58941e-09
3.0589e-09
2.58349e-09
2.16578e-09
1.80827e-09
1.51422e-09
1.28718e-09
1.12811e-09
1.02163e-09
8.69228e-10
6.96727e-10
5.24643e-10
3.68929e-10
2.40245e-10
1.43273e-10
7.68966e-11
3.58284e-11
1.30766e-11
2.42827e-12
1.18168e-13
3.77616e-08
3.76831e-08
3.75282e-08
3.72973e-08
3.69911e-08
3.66111e-08
3.61587e-08
3.56355e-08
3.50437e-08
3.43853e-08
3.3663e-08
3.28795e-08
3.20386e-08
3.11447e-08
3.01861e-08
2.9172e-08
2.81125e-08
2.70181e-08
2.58833e-08
2.47172e-08
2.35284e-08
2.23252e-08
2.11157e-08
1.99082e-08
1.87107e-08
1.75314e-08
1.63645e-08
1.52158e-08
1.40908e-08
1.29943e-08
1.19367e-08
1.09182e-08
9.93782e-09
8.99948e-09
8.09821e-09
7.23799e-09
6.42237e-09
5.65471e-09
4.93835e-09
4.27684e-09
3.67232e-09
3.12285e-09
2.63213e-09
2.20327e-09
1.83947e-09
1.54603e-09
1.33277e-09
1.21906e-09
1.06711e-09
8.89056e-10
7.0095e-10
5.19482e-10
3.59023e-10
2.29263e-10
1.33781e-10
7.02063e-11
3.20983e-11
1.16846e-11
2.31178e-12
1.22012e-13
3.99751e-08
3.98911e-08
3.97255e-08
3.94785e-08
3.91512e-08
3.8745e-08
3.82615e-08
3.77025e-08
3.70701e-08
3.63665e-08
3.55942e-08
3.47556e-08
3.38533e-08
3.28901e-08
3.18537e-08
3.07567e-08
2.96118e-08
2.84321e-08
2.7214e-08
2.59659e-08
2.46962e-08
2.34133e-08
2.21258e-08
2.08418e-08
1.957e-08
1.83188e-08
1.70826e-08
1.58674e-08
1.4679e-08
1.35225e-08
1.24085e-08
1.13378e-08
1.03099e-08
9.32e-09
8.37202e-09
7.46948e-09
6.61571e-09
5.81391e-09
5.06732e-09
4.37939e-09
3.75244e-09
3.18408e-09
2.6782e-09
2.23818e-09
1.86697e-09
1.56926e-09
1.35402e-09
1.24099e-09
1.08191e-09
8.93862e-10
6.96583e-10
5.08945e-10
3.45972e-10
2.16775e-10
1.23712e-10
6.32694e-11
2.81881e-11
1.01604e-11
2.13907e-12
1.23336e-13
4.23127e-08
4.22228e-08
4.20457e-08
4.17816e-08
4.14318e-08
4.09976e-08
4.0481e-08
3.98838e-08
3.92084e-08
3.84573e-08
3.76332e-08
3.67388e-08
3.57755e-08
3.47238e-08
3.35963e-08
3.24058e-08
3.11653e-08
2.98876e-08
2.85853e-08
2.72522e-08
2.58981e-08
2.45322e-08
2.31632e-08
2.17996e-08
2.04502e-08
1.91238e-08
1.78152e-08
1.65305e-08
1.52758e-08
1.40566e-08
1.28835e-08
1.17567e-08
1.06748e-08
9.63395e-09
8.6389e-09
7.6935e-09
6.80118e-09
5.96514e-09
5.18857e-09
4.47475e-09
3.82548e-09
3.23867e-09
2.71881e-09
2.26974e-09
1.89433e-09
1.59645e-09
1.38216e-09
1.26596e-09
1.09557e-09
8.94502e-10
6.86635e-10
4.92777e-10
3.28196e-10
2.00885e-10
1.11585e-10
5.5345e-11
2.38991e-11
8.44405e-12
1.85113e-12
1.18294e-13
4.47847e-08
4.46886e-08
4.44991e-08
4.42166e-08
4.38425e-08
4.33784e-08
4.28262e-08
4.2188e-08
4.14663e-08
4.06638e-08
3.97844e-08
3.88337e-08
3.77793e-08
3.66329e-08
3.54079e-08
3.41181e-08
3.27775e-08
3.14005e-08
3.00016e-08
2.85764e-08
2.7133e-08
2.56798e-08
2.42256e-08
2.27788e-08
2.13483e-08
1.99431e-08
1.85582e-08
1.72003e-08
1.58758e-08
1.45921e-08
1.33584e-08
1.21748e-08
1.10327e-08
9.93747e-09
8.89338e-09
7.90405e-09
6.9727e-09
6.10244e-09
5.29662e-09
4.55928e-09
3.88652e-09
3.28175e-09
2.74963e-09
2.29459e-09
1.92029e-09
1.63115e-09
1.42988e-09
1.29916e-09
1.10678e-09
8.87061e-10
6.67285e-10
4.68587e-10
3.04745e-10
1.81579e-10
9.77796e-11
4.67748e-11
1.94017e-11
6.64405e-12
1.49959e-12
1.08643e-13
4.74017e-08
4.72989e-08
4.7096e-08
4.67938e-08
4.63937e-08
4.58974e-08
4.53071e-08
4.4625e-08
4.3853e-08
4.29929e-08
4.20461e-08
4.10143e-08
3.98655e-08
3.86177e-08
3.72875e-08
3.58907e-08
3.44424e-08
3.29574e-08
3.14496e-08
2.99325e-08
2.8397e-08
2.68533e-08
2.53102e-08
2.37765e-08
2.22609e-08
2.07726e-08
1.93069e-08
1.78702e-08
1.64763e-08
1.51284e-08
1.38259e-08
1.25747e-08
1.13712e-08
1.02207e-08
9.1269e-09
8.09332e-09
7.12285e-09
6.21835e-09
5.38293e-09
4.62055e-09
3.92717e-09
3.3069e-09
2.76529e-09
2.30808e-09
1.94111e-09
1.67461e-09
1.5335e-09
1.33744e-09
1.10642e-09
8.64061e-10
6.33185e-10
4.32136e-10
2.72138e-10
1.56272e-10
8.05992e-11
3.66062e-11
1.42452e-11
4.55584e-12
1.00392e-12
8.38339e-14
5.0175e-08
5.00649e-08
4.98476e-08
4.95239e-08
4.90956e-08
4.85648e-08
4.7934e-08
4.72056e-08
4.63821e-08
4.54655e-08
4.4455e-08
4.33092e-08
4.20459e-08
4.06827e-08
3.92366e-08
3.77241e-08
3.61614e-08
3.45641e-08
3.29474e-08
3.13261e-08
2.96908e-08
2.80509e-08
2.64148e-08
2.47901e-08
2.3185e-08
2.16089e-08
2.00575e-08
1.8538e-08
1.70655e-08
1.56436e-08
1.4272e-08
1.29499e-08
1.16832e-08
1.04761e-08
9.33222e-09
8.25442e-09
7.24532e-09
6.30742e-09
5.44351e-09
4.65667e-09
3.94385e-09
3.31011e-09
2.76207e-09
2.30656e-09
1.95024e-09
1.69933e-09
1.54491e-09
1.32493e-09
1.07247e-09
8.162e-10
5.80246e-10
3.82055e-10
2.3065e-10
1.26027e-10
6.12637e-11
2.58491e-11
9.14842e-12
2.60457e-12
5.18063e-13
4.94059e-14
5.31402e-08
5.30219e-08
5.27885e-08
5.2441e-08
5.19815e-08
5.14123e-08
5.07363e-08
4.99567e-08
4.90776e-08
4.81049e-08
4.69771e-08
4.57108e-08
4.43244e-08
4.28362e-08
4.12644e-08
3.96267e-08
3.79404e-08
3.62222e-08
3.44886e-08
3.2755e-08
3.10145e-08
2.92746e-08
2.75416e-08
2.58216e-08
2.41219e-08
2.24512e-08
2.08066e-08
1.91966e-08
1.76389e-08
1.61366e-08
1.46841e-08
1.32897e-08
1.19587e-08
1.06944e-08
9.49989e-09
8.37781e-09
7.33053e-09
6.36027e-09
5.47043e-09
4.65778e-09
3.92642e-09
3.28186e-09
2.73209e-09
2.28645e-09
1.95815e-09
1.77207e-09
1.54912e-09
1.28699e-09
1.00786e-09