/*--------------------------------*- C++ -*----------------------------------*\
| =========                 |                                                 |
| \\      /  F ield         | OpenFOAM: The Open Source CFD Toolbox           |
|  \\    /   O peration     | Version:  v1906                                 |
|   \\  /    A nd           | Web:      www.OpenFOAM.com                      |
|    \\/     M anipulation  |                                                 |
\*---------------------------------------------------------------------------*/
FoamFile
{
    version     2.0;
    format      ascii;
    class       volScalarField;
    location    "2.83";
    object      CH3;
}
// * * * * * * * * * * * * * * * * * * * * * * * * * * * * * * * * * * * * * //

dimensions      [0 0 0 0 0 0 0];


internalField   nonuniform List<scalar> 
26400
(
1.39451e-09
1.39277e-09
1.38927e-09
1.38404e-09
1.37709e-09
1.36843e-09
1.35808e-09
1.34607e-09
1.33242e-09
1.31717e-09
1.30037e-09
1.28204e-09
1.26223e-09
1.241e-09
1.2184e-09
1.19448e-09
1.16931e-09
1.14294e-09
1.11545e-09
1.08689e-09
1.05735e-09
1.02689e-09
9.95578e-10
9.63493e-10
9.30704e-10
8.97278e-10
8.63283e-10
8.28778e-10
7.93821e-10
7.5846e-10
7.22652e-10
6.86251e-10
6.49573e-10
6.12702e-10
5.75722e-10
5.3871e-10
5.01746e-10
4.64916e-10
4.28308e-10
3.91781e-10
3.55672e-10
3.20127e-10
2.853e-10
2.51358e-10
2.1848e-10
1.86859e-10
1.56712e-10
1.28283e-10
1.01855e-10
7.77585e-11
5.63771e-11
3.81395e-11
2.34694e-11
1.26671e-11
5.70067e-12
1.996e-12
4.94276e-13
7.41081e-14
4.70727e-15
1.1397e-16
1.45819e-09
1.45636e-09
1.45271e-09
1.44723e-09
1.43995e-09
1.43089e-09
1.42006e-09
1.40748e-09
1.3932e-09
1.37725e-09
1.35966e-09
1.34048e-09
1.31976e-09
1.29756e-09
1.27392e-09
1.24891e-09
1.2226e-09
1.19505e-09
1.16633e-09
1.13652e-09
1.1057e-09
1.07394e-09
1.04132e-09
1.00792e-09
9.73824e-10
9.39097e-10
9.03818e-10
8.68054e-10
8.31866e-10
7.9531e-10
7.58355e-10
7.20674e-10
6.82576e-10
6.44291e-10
6.05906e-10
5.67499e-10
5.29079e-10
4.90803e-10
4.52766e-10
4.14621e-10
3.76827e-10
3.39609e-10
3.03132e-10
2.67572e-10
2.33112e-10
1.99947e-10
1.68292e-10
1.38385e-10
1.10501e-10
8.49607e-11
6.21482e-11
4.25037e-11
2.64919e-11
1.4499e-11
6.61035e-12
2.33191e-12
5.76758e-13
8.59078e-14
5.46524e-15
1.33582e-16
1.5388e-09
1.53686e-09
1.53299e-09
1.52718e-09
1.51946e-09
1.50985e-09
1.49836e-09
1.48503e-09
1.46989e-09
1.45298e-09
1.43433e-09
1.414e-09
1.39203e-09
1.3685e-09
1.34345e-09
1.31697e-09
1.28911e-09
1.25995e-09
1.22958e-09
1.19807e-09
1.16552e-09
1.13201e-09
1.09762e-09
1.06245e-09
1.02659e-09
9.90121e-10
9.53127e-10
9.1569e-10
8.77881e-10
8.39764e-10
8.01337e-10
7.6206e-10
7.2222e-10
6.82093e-10
6.41912e-10
6.01765e-10
5.6144e-10
5.21297e-10
4.81454e-10
4.41333e-10
4.0138e-10
3.62047e-10
3.23513e-10
2.85963e-10
2.49585e-10
2.14576e-10
1.81146e-10
1.49529e-10
1.19991e-10
9.28441e-11
6.84659e-11
4.73065e-11
2.98677e-11
1.66073e-11
7.71578e-12
2.76311e-12
6.86357e-13
1.01812e-13
6.46252e-15
1.58514e-16
1.62721e-09
1.62514e-09
1.62102e-09
1.61484e-09
1.60663e-09
1.59641e-09
1.58418e-09
1.57e-09
1.55388e-09
1.53587e-09
1.51602e-09
1.49438e-09
1.471e-09
1.44595e-09
1.4193e-09
1.39113e-09
1.3615e-09
1.33052e-09
1.29826e-09
1.26482e-09
1.23029e-09
1.19478e-09
1.15839e-09
1.12121e-09
1.08335e-09
1.04491e-09
1.00599e-09
9.66682e-10
9.2707e-10
8.87235e-10
8.47208e-10
8.06238e-10
7.64593e-10
7.22543e-10
6.80403e-10
6.38398e-10
5.961e-10
5.53873e-10
5.12048e-10
4.69824e-10
4.27625e-10
3.85984e-10
3.45237e-10
3.05571e-10
2.67176e-10
2.30245e-10
1.94984e-10
1.61616e-10
1.3039e-10
1.01604e-10
7.56216e-11
5.28887e-11
3.39311e-11
1.92776e-11
9.22305e-12
3.36766e-12
8.38789e-13
1.22727e-13
7.72895e-15
1.90877e-16
1.72186e-09
1.71966e-09
1.71527e-09
1.7087e-09
1.69996e-09
1.68907e-09
1.67606e-09
1.66094e-09
1.64377e-09
1.62457e-09
1.6034e-09
1.58032e-09
1.55539e-09
1.52868e-09
1.50026e-09
1.47022e-09
1.43864e-09
1.40563e-09
1.37128e-09
1.3357e-09
1.299e-09
1.26128e-09
1.22267e-09
1.18327e-09
1.14321e-09
1.1026e-09
1.06156e-09
1.0202e-09
9.7862e-10
9.36921e-10
8.95172e-10
8.52411e-10
8.08894e-10
7.6489e-10
7.20712e-10
6.76716e-10
6.32355e-10
5.87988e-10
5.44039e-10
4.99607e-10
4.55103e-10
4.11026e-10
3.6795e-10
3.2607e-10
2.85578e-10
2.46664e-10
2.09525e-10
1.74366e-10
1.41422e-10
1.10971e-10
8.33604e-11
5.90344e-11
3.85477e-11
2.25151e-11
1.13457e-11
4.22676e-12
1.04846e-12
1.50821e-13
9.39247e-15
2.32546e-16
1.82273e-09
1.8204e-09
1.81575e-09
1.80877e-09
1.79949e-09
1.78791e-09
1.77405e-09
1.75795e-09
1.73963e-09
1.71915e-09
1.69655e-09
1.67191e-09
1.64528e-09
1.61674e-09
1.58638e-09
1.55429e-09
1.52057e-09
1.48532e-09
1.44867e-09
1.41073e-09
1.37162e-09
1.33147e-09
1.29041e-09
1.24857e-09
1.20608e-09
1.16309e-09
1.11972e-09
1.0761e-09
1.03237e-09
9.88629e-10
9.45006e-10
9.00323e-10
8.54826e-10
8.08795e-10
7.62545e-10
7.16433e-10
6.6993e-10
6.23382e-10
5.77198e-10
5.30489e-10
4.83659e-10
4.37189e-10
3.91668e-10
3.47507e-10
3.04887e-10
2.63983e-10
2.24975e-10
1.88045e-10
1.534e-10
1.21291e-10
9.20449e-11
6.6099e-11
4.40411e-11
2.66466e-11
1.49209e-11
5.47236e-12
1.33052e-12
1.85803e-13
1.13599e-14
2.80941e-16
1.93013e-09
1.92767e-09
1.92277e-09
1.91541e-09
1.90558e-09
1.8933e-09
1.87857e-09
1.86142e-09
1.84189e-09
1.82003e-09
1.79589e-09
1.76953e-09
1.74104e-09
1.7105e-09
1.67801e-09
1.64366e-09
1.60758e-09
1.56988e-09
1.53068e-09
1.49013e-09
1.44837e-09
1.40553e-09
1.36176e-09
1.31722e-09
1.27206e-09
1.22644e-09
1.1805e-09
1.1344e-09
1.08828e-09
1.0423e-09
9.96619e-10
9.49845e-10
9.02219e-10
8.54036e-10
8.05619e-10
7.57326e-10
7.08643e-10
6.59881e-10
6.11367e-10
5.6229e-10
5.13077e-10
4.64198e-10
4.16202e-10
3.69736e-10
3.24978e-10
2.82094e-10
2.41236e-10
2.02556e-10
1.66221e-10
1.32446e-10
1.01547e-10
7.39534e-11
5.02552e-11
3.12819e-11
1.83023e-11
6.79982e-12
1.643e-12
2.22509e-13
1.33597e-14
3.3036e-16
2.04427e-09
2.04172e-09
2.03665e-09
2.02905e-09
2.01876e-09
2.0058e-09
1.99018e-09
1.97192e-09
1.95109e-09
1.92774e-09
1.90193e-09
1.87372e-09
1.84319e-09
1.81045e-09
1.7756e-09
1.73876e-09
1.70006e-09
1.65964e-09
1.61764e-09
1.5742e-09
1.5295e-09
1.48368e-09
1.43693e-09
1.38941e-09
1.34129e-09
1.29275e-09
1.24397e-09
1.19512e-09
1.14638e-09
1.09792e-09
1.04996e-09
1.00089e-09
9.5096e-10
9.00481e-10
8.49799e-10
7.99305e-10
7.48547e-10
6.97906e-10
6.46581e-10
5.94894e-10
5.43213e-10
4.91952e-10
4.41608e-10
3.92799e-10
3.45929e-10
3.01132e-10
2.58523e-10
2.18199e-10
1.80242e-10
1.44789e-10
1.12218e-10
8.29794e-11
5.76466e-11
3.70178e-11
2.24844e-11
8.51374e-12
2.04913e-12
2.67826e-13
1.57436e-14
3.891e-16
2.16518e-09
2.16248e-09
2.1571e-09
2.14905e-09
2.13838e-09
2.12514e-09
2.10892e-09
2.0898e-09
2.06779e-09
2.04294e-09
2.01534e-09
1.98507e-09
1.95228e-09
1.91711e-09
1.87966e-09
1.84006e-09
1.79846e-09
1.75502e-09
1.7099e-09
1.66327e-09
1.61531e-09
1.5662e-09
1.51613e-09
1.46531e-09
1.41392e-09
1.36216e-09
1.31023e-09
1.25835e-09
1.20669e-09
1.15548e-09
1.10497e-09
1.05337e-09
1.00089e-09
9.47886e-10
8.94704e-10
8.41734e-10
7.88534e-10
7.35416e-10
6.81645e-10
6.27582e-10
5.73599e-10
5.20097e-10
4.67541e-10
4.16494e-10
3.67616e-10
3.21042e-10
2.76874e-10
2.35141e-10
1.95706e-10
1.58364e-10
1.24064e-10
9.32607e-11
6.64658e-11
4.42887e-11
2.7711e-11
1.07108e-11
2.56435e-12
3.19489e-13
1.81561e-14
4.4251e-16
2.29375e-09
2.29083e-09
2.28502e-09
2.27633e-09
2.26482e-09
2.25052e-09
2.23351e-09
2.21386e-09
2.19099e-09
2.16499e-09
2.13591e-09
2.10382e-09
2.06883e-09
2.03109e-09
1.99077e-09
1.94809e-09
1.90327e-09
1.85648e-09
1.80789e-09
1.75771e-09
1.70613e-09
1.65337e-09
1.59964e-09
1.54516e-09
1.49014e-09
1.43481e-09
1.37941e-09
1.32415e-09
1.26926e-09
1.21498e-09
1.16165e-09
1.10724e-09
1.05198e-09
9.9626e-10
9.40467e-10
8.85014e-10
8.29607e-10
7.73538e-10
7.17098e-10
6.60582e-10
6.04309e-10
5.48637e-10
4.9399e-10
4.40893e-10
3.90032e-10
3.41813e-10
2.96409e-10
2.54017e-10
2.12516e-10
1.73131e-10
1.3718e-10
1.05086e-10
7.73681e-11
5.44181e-11
3.45308e-11
1.35382e-11
3.21909e-12
3.78534e-13
2.06655e-14
4.93289e-16
2.431e-09
2.42784e-09
2.42153e-09
2.4121e-09
2.3996e-09
2.38409e-09
2.36563e-09
2.34429e-09
2.32017e-09
2.29337e-09
2.26307e-09
2.22937e-09
2.19239e-09
2.15228e-09
2.1092e-09
2.06338e-09
2.01506e-09
1.96451e-09
1.91207e-09
1.85794e-09
1.80236e-09
1.74555e-09
1.68775e-09
1.62922e-09
1.57019e-09
1.51092e-09
1.45166e-09
1.39266e-09
1.33418e-09
1.27647e-09
1.21995e-09
1.16237e-09
1.10399e-09
1.04523e-09
9.86596e-10
9.27895e-10
8.69672e-10
8.1106e-10
7.52262e-10
6.93524e-10
6.3513e-10
5.77413e-10
5.20771e-10
4.65695e-10
4.1282e-10
3.62834e-10
3.15928e-10
2.72318e-10
2.29481e-10
1.88556e-10
1.51309e-10
1.18354e-10
9.07617e-11
7.09922e-11
4.32665e-11
1.69362e-11
3.97733e-12
4.36038e-13
2.25223e-14
5.16499e-16
2.5779e-09
2.57446e-09
2.56759e-09
2.55735e-09
2.54377e-09
2.52693e-09
2.50692e-09
2.48382e-09
2.45776e-09
2.42887e-09
2.39727e-09
2.36192e-09
2.32293e-09
2.28044e-09
2.23464e-09
2.18573e-09
2.13397e-09
2.07962e-09
2.02301e-09
1.96448e-09
1.90444e-09
1.84314e-09
1.78085e-09
1.71783e-09
1.65438e-09
1.59075e-09
1.52723e-09
1.4641e-09
1.40163e-09
1.34011e-09
1.27999e-09
1.21879e-09
1.15675e-09
1.09428e-09
1.03184e-09
9.69177e-10
9.09059e-10
8.48419e-10
7.8755e-10
7.26746e-10
6.66323e-10
6.06625e-10
5.4805e-10
4.91076e-10
4.36305e-10
3.84537e-10
3.36154e-10
2.91401e-10
2.47406e-10
2.05233e-10
1.66621e-10
1.32516e-10
1.03714e-10
8.20852e-11
5.11195e-11
2.04428e-11
4.79806e-12
4.90495e-13
2.4052e-14
5.22092e-16
2.7354e-09
2.73164e-09
2.72414e-09
2.71295e-09
2.69812e-09
2.67975e-09
2.65791e-09
2.63274e-09
2.60436e-09
2.57292e-09
2.5386e-09
2.50156e-09
2.46051e-09
2.41561e-09
2.36702e-09
2.31498e-09
2.25974e-09
2.20157e-09
2.1408e-09
2.07778e-09
2.01291e-09
1.94663e-09
1.87936e-09
1.81141e-09
1.74307e-09
1.67466e-09
1.60647e-09
1.5388e-09
1.47196e-09
1.40626e-09
1.3422e-09
1.27707e-09
1.21114e-09
1.14488e-09
1.07885e-09
1.013e-09
9.50202e-10
8.87068e-10
8.23835e-10
7.60777e-10
6.98198e-10
6.36439e-10
5.75893e-10
5.17026e-10
4.60417e-10
4.06829e-10
3.56971e-10
3.1113e-10
2.66141e-10
2.23063e-10
1.83579e-10
1.49216e-10
1.20368e-10
9.56596e-11
6.04801e-11
2.48306e-11
5.8154e-12
5.5029e-13
2.5648e-14
5.20789e-16
2.90463e-09
2.90051e-09
2.89229e-09
2.88003e-09
2.8638e-09
2.84368e-09
2.81977e-09
2.79222e-09
2.76116e-09
2.72678e-09
2.68925e-09
2.64879e-09
2.60563e-09
2.55822e-09
2.50675e-09
2.45145e-09
2.39258e-09
2.33045e-09
2.26539e-09
2.19778e-09
2.12801e-09
2.05654e-09
1.98384e-09
1.91043e-09
1.83673e-09
1.76306e-09
1.68976e-09
1.61714e-09
1.54552e-09
1.47521e-09
1.40677e-09
1.33723e-09
1.2668e-09
1.19593e-09
1.12504e-09
1.05697e-09
9.91961e-10
9.26518e-10
8.60957e-10
7.95603e-10
7.30795e-10
6.66896e-10
6.0431e-10
5.43501e-10
4.85031e-10
4.29619e-10
3.78239e-10
3.31268e-10
2.85316e-10
2.41513e-10
2.01717e-10
1.68812e-10
1.45814e-10
1.12043e-10
7.11655e-11
3.06246e-11
7.0983e-12
6.53464e-13
2.8528e-14
5.34832e-16
3.08681e-09
3.08229e-09
3.07329e-09
3.05987e-09
3.04208e-09
3.02003e-09
2.99384e-09
2.96363e-09
2.92959e-09
2.89189e-09
2.85073e-09
2.80636e-09
2.75903e-09
2.70901e-09
2.65452e-09
2.59579e-09
2.53311e-09
2.4668e-09
2.39723e-09
2.32479e-09
2.24993e-09
2.1731e-09
2.09482e-09
2.0156e-09
1.93601e-09
1.85661e-09
1.77774e-09
1.69974e-09
1.62296e-09
1.54772e-09
1.47462e-09
1.40048e-09
1.32556e-09
1.25041e-09
1.17565e-09
1.10423e-09
1.03626e-09
9.67998e-10
8.99733e-10
8.31793e-10
7.64523e-10
6.98296e-10
6.33522e-10
5.70667e-10
5.10283e-10
4.53066e-10
3.9994e-10
3.51626e-10
3.04478e-10
2.59549e-10
2.18499e-10
1.84379e-10
1.60297e-10
1.24912e-10
8.16295e-11
3.73718e-11
8.70274e-12
7.97754e-13
3.30398e-14
5.80583e-16
3.28326e-09
3.27832e-09
3.26847e-09
3.25378e-09
3.23432e-09
3.21019e-09
3.18151e-09
3.14844e-09
3.11114e-09
3.0698e-09
3.02466e-09
2.97595e-09
2.92396e-09
2.86897e-09
2.81134e-09
2.749e-09
2.68227e-09
2.6115e-09
2.53709e-09
2.45949e-09
2.37918e-09
2.2967e-09
2.21258e-09
2.12741e-09
2.04173e-09
1.95614e-09
1.87124e-09
1.78743e-09
1.70504e-09
1.62439e-09
1.54609e-09
1.46668e-09
1.38636e-09
1.30557e-09
1.2279e-09
1.15356e-09
1.08276e-09
1.01162e-09
9.40509e-10
8.69801e-10
7.99872e-10
7.3112e-10
6.63971e-10
5.98896e-10
5.36443e-10
4.77288e-10
4.22313e-10
3.7257e-10
3.2428e-10
2.78414e-10
2.36448e-10
2.01064e-10
1.75784e-10
1.39099e-10
9.38823e-11
4.60737e-11
1.11619e-11
1.05439e-12
4.36029e-14
7.48166e-16
3.49543e-09
3.49004e-09
3.47931e-09
3.4633e-09
3.44208e-09
3.41575e-09
3.38446e-09
3.34834e-09
3.30758e-09
3.26237e-09
3.21295e-09
3.15955e-09
3.10246e-09
3.04201e-09
2.97852e-09
2.91239e-09
2.84133e-09
2.76573e-09
2.68602e-09
2.60273e-09
2.51644e-09
2.42778e-09
2.33749e-09
2.24617e-09
2.15439e-09
2.06268e-09
1.97158e-09
1.88166e-09
1.79337e-09
1.70703e-09
1.62331e-09
1.53857e-09
1.4531e-09
1.36759e-09
1.28574e-09
1.20762e-09
1.13335e-09
1.05886e-09
9.84501e-10
9.10676e-10
8.37781e-10
7.66225e-10
6.96441e-10
6.28898e-10
5.64129e-10
5.02785e-10
4.45724e-10
3.94179e-10
3.44809e-10
2.98191e-10
2.55506e-10
2.19037e-10
1.92598e-10
1.55056e-10
1.08662e-10
5.78533e-11
1.54483e-11
1.59744e-12
7.35396e-14
1.31574e-15
3.72481e-09
3.71896e-09
3.70732e-09
3.68995e-09
3.66692e-09
3.63836e-09
3.60439e-09
3.56516e-09
3.52085e-09
3.47167e-09
3.41782e-09
3.35957e-09
3.29716e-09
3.23091e-09
3.16115e-09
3.08824e-09
3.01262e-09
2.93172e-09
2.84603e-09
2.7561e-09
2.66262e-09
2.56611e-09
2.469e-09
2.3715e-09
2.27389e-09
2.17652e-09
2.07977e-09
1.98403e-09
1.8897e-09
1.79719e-09
1.70726e-09
1.61601e-09
1.52363e-09
1.4345e-09
1.34888e-09
1.26699e-09
1.18907e-09
1.11092e-09
1.03299e-09
9.55716e-10
8.79534e-10
8.04865e-10
7.32142e-10
6.61812e-10
5.94357e-10
5.30323e-10
4.70362e-10
4.15315e-10
3.66003e-10
3.18996e-10
2.75607e-10
2.37945e-10
2.10083e-10
1.71944e-10
1.25346e-10
7.28886e-11
2.28702e-11
2.82772e-12
1.80127e-13
3.76668e-15
3.97287e-09
3.96657e-09
3.954e-09
3.93525e-09
3.91041e-09
3.8796e-09
3.84295e-09
3.80063e-09
3.75282e-09
3.69972e-09
3.64154e-09
3.57851e-09
3.51087e-09
3.43889e-09
3.36284e-09
3.28303e-09
3.19982e-09
3.11357e-09
3.02143e-09
2.92388e-09
2.82411e-09
2.72256e-09
2.61962e-09
2.51573e-09
2.41136e-09
2.30699e-09
2.20309e-09
2.10016e-09
1.9987e-09
1.8992e-09
1.80258e-09
1.70484e-09
1.60647e-09
1.5119e-09
1.42125e-09
1.33469e-09
1.25239e-09
1.17003e-09
1.08805e-09
1.00692e-09
9.27045e-10
8.4887e-10
7.72826e-10
6.99361e-10
6.28954e-10
5.62132e-10
4.9951e-10
4.41861e-10
3.90242e-10
3.41286e-10
2.9614e-10
2.5657e-10
2.25932e-10
1.86608e-10
1.40245e-10
8.82501e-11
3.51745e-11
5.97485e-12
6.71948e-13
1.8648e-14
4.24113e-09
4.23434e-09
4.22082e-09
4.20066e-09
4.17397e-09
4.14089e-09
4.10157e-09
4.05621e-09
4.00499e-09
3.94815e-09
3.88588e-09
3.81843e-09
3.74601e-09
3.66886e-09
3.58718e-09
3.5012e-09
3.41112e-09
3.31713e-09
3.21939e-09
3.1173e-09
3.01163e-09
2.90315e-09
2.79267e-09
2.6809e-09
2.56842e-09
2.45579e-09
2.34358e-09
2.23231e-09
2.12251e-09
2.01468e-09
1.90971e-09
1.80319e-09
1.69986e-09
1.60008e-09
1.50416e-09
1.41243e-09
1.32524e-09
1.2384e-09
1.1522e-09
1.06702e-09
9.83239e-10
9.01289e-10
8.21603e-10
7.44631e-10
6.70843e-10
6.00735e-10
5.34859e-10
4.73873e-10
4.18632e-10
3.67073e-10
3.19363e-10
2.76715e-10
2.41317e-10
2.0036e-10
1.54563e-10
1.04816e-10
5.43397e-11
1.56849e-11
3.23824e-12
1.38941e-13
4.53343e-09
4.52611e-09
4.51156e-09
4.48988e-09
4.46121e-09
4.42573e-09
4.38364e-09
4.33518e-09
4.28058e-09
4.22009e-09
4.15399e-09
4.08252e-09
4.00593e-09
3.92447e-09
3.83837e-09
3.74785e-09
3.65312e-09
3.55439e-09
3.45013e-09
3.34102e-09
3.22778e-09
3.11117e-09
2.992e-09
2.8711e-09
2.7494e-09
2.6276e-09
2.50632e-09
2.38614e-09
2.26768e-09
2.15155e-09
2.03896e-09
1.92517e-09
1.81469e-09
1.70799e-09
1.60527e-09
1.50673e-09
1.41251e-09
1.32271e-09
1.23319e-09
1.14445e-09
1.05701e-09
9.71336e-10
8.87932e-10
8.07272e-10
7.29826e-10
6.56062e-10
5.86425e-10
5.21386e-10
4.61478e-10
4.07262e-10
3.56782e-10
3.10112e-10
2.67771e-10
2.29967e-10
1.87664e-10
1.42246e-10
9.52012e-11
5.3053e-11
1.67803e-11
9.51448e-13
4.85037e-09
4.84194e-09
4.82519e-09
4.80027e-09
4.76737e-09
4.72676e-09
4.67873e-09
4.6236e-09
4.56171e-09
4.49342e-09
4.41907e-09
4.33898e-09
4.25347e-09
4.16281e-09
4.06726e-09
3.96705e-09
3.86238e-09
3.75074e-09
3.63292e-09
3.50971e-09
3.38198e-09
3.2506e-09
3.11648e-09
2.98057e-09
2.84388e-09
2.70746e-09
2.5721e-09
2.4384e-09
2.30695e-09
2.1783e-09
2.05347e-09
1.93196e-09
1.81416e-09
1.70086e-09
1.59238e-09
1.48903e-09
1.39106e-09
1.29334e-09
1.19652e-09
1.10126e-09
1.00816e-09
9.17817e-10
8.30785e-10
7.47606e-10
6.68811e-10
5.94954e-10
5.26668e-10
4.6464e-10
4.09657e-10
3.58819e-10
3.12154e-10
2.70767e-10
2.35899e-10
1.92515e-10
1.42873e-10
9.07393e-11
4.20568e-11
1.01022e-11
8.99302e-13
2.07238e-14
5.19016e-09
5.18032e-09
5.16076e-09
5.13171e-09
5.09346e-09
5.04639e-09
4.99094e-09
4.9276e-09
4.8569e-09
4.77931e-09
4.6953e-09
4.60531e-09
4.50971e-09
4.40885e-09
4.30298e-09
4.19232e-09
4.07318e-09
3.94649e-09
3.81318e-09
3.67421e-09
3.53054e-09
3.38317e-09
3.2331e-09
3.08141e-09
2.92919e-09
2.77762e-09
2.62793e-09
2.48087e-09
2.33711e-09
2.1973e-09
2.06255e-09
1.93222e-09
1.80677e-09
1.68712e-09
1.57356e-09
1.46628e-09
1.35948e-09
1.25399e-09
1.15062e-09
1.05012e-09
9.53219e-10
8.60612e-10
7.7296e-10
6.90896e-10
6.15023e-10
5.45912e-10
4.84078e-10
4.29903e-10
3.8024e-10
3.35477e-10
2.96181e-10
2.65349e-10
2.25721e-10
1.78445e-10
1.26673e-10
7.54286e-11
3.23071e-11
7.19564e-12
5.77834e-13
1.21809e-14
5.55568e-09
5.5441e-09
5.52112e-09
5.487e-09
5.44215e-09
5.38711e-09
5.32257e-09
5.24938e-09
5.16842e-09
5.08026e-09
4.98551e-09
4.88478e-09
4.77859e-09
4.66731e-09
4.55119e-09
4.4251e-09
4.29013e-09
4.14734e-09
3.99778e-09
3.84248e-09
3.68248e-09
3.51884e-09
3.35266e-09
3.18509e-09
3.01731e-09
2.85062e-09
2.68636e-09
2.52584e-09
2.36981e-09
2.21906e-09
2.07482e-09
1.93618e-09
1.80382e-09
1.67882e-09
1.56151e-09
1.44487e-09
1.32991e-09
1.2176e-09
1.1088e-09
1.00437e-09
9.05089e-10
8.117e-10
7.24923e-10
6.4546e-10
5.74021e-10
5.11358e-10
4.58352e-10
4.1086e-10
3.68388e-10
3.30477e-10
2.9693e-10
2.6985e-10
2.29801e-10
1.79808e-10
1.24921e-10
7.1839e-11
2.99063e-11
6.35853e-12
4.69089e-13
8.74309e-15
5.93346e-09
5.9205e-09
5.89474e-09
5.85645e-09
5.80605e-09
5.74407e-09
5.67121e-09
5.5883e-09
5.49629e-09
5.39625e-09
5.28936e-09
5.17691e-09
5.0598e-09
4.93838e-09
4.8058e-09
4.66328e-09
4.51195e-09
4.35286e-09
4.18704e-09
4.01553e-09
3.8394e-09
3.65974e-09
3.4777e-09
3.29448e-09
3.11135e-09
2.92965e-09
2.75087e-09
2.57661e-09
2.4081e-09
2.24623e-09
2.09244e-09
1.94559e-09
1.80677e-09
1.67772e-09
1.55e-09
1.42454e-09
1.30233e-09
1.18433e-09
1.07148e-09
9.6464e-10
8.64632e-10
7.7223e-10
6.88177e-10
6.13192e-10
5.4798e-10
4.93225e-10
4.49603e-10
4.1221e-10
3.79923e-10
3.51035e-10
3.23638e-10
2.97927e-10
2.54375e-10
1.97967e-10
1.36275e-10
7.79604e-11
3.30929e-11
7.41431e-12
5.56468e-13
1.06403e-14
6.30871e-09
6.29454e-09
6.26636e-09
6.22441e-09
6.16906e-09
6.10085e-09
6.02056e-09
5.9292e-09
5.82801e-09
5.71819e-09
5.60098e-09
5.47772e-09
5.34989e-09
5.21087e-09
5.06163e-09
4.90307e-09
4.73601e-09
4.56134e-09
4.37997e-09
4.19289e-09
4.00118e-09
3.806e-09
3.60855e-09
3.41009e-09
3.21192e-09
3.01542e-09
2.8221e-09
2.63369e-09
2.4521e-09
2.27839e-09
2.11415e-09
1.95773e-09
1.81019e-09
1.67276e-09
1.53682e-09
1.40401e-09
1.2757e-09
1.15309e-09
1.0372e-09
9.28941e-10
8.29139e-10
7.38579e-10
6.58037e-10
5.8832e-10
5.30267e-10
4.84679e-10
4.52001e-10
4.2716e-10
4.08757e-10
3.9297e-10
3.72972e-10
3.46893e-10
2.95539e-10
2.28297e-10
1.56147e-10
8.95344e-11
3.89221e-11
9.41616e-12
7.49456e-13
1.43009e-14
6.67468e-09
6.65958e-09
6.62951e-09
6.58452e-09
6.52476e-09
6.45054e-09
6.36255e-09
6.26218e-09
6.15224e-09
6.03361e-09
5.9073e-09
5.77464e-09
5.63136e-09
5.47796e-09
5.31488e-09
5.14263e-09
4.96179e-09
4.773e-09
4.5771e-09
4.3751e-09
4.16824e-09
3.95789e-09
3.74544e-09
3.53225e-09
3.31962e-09
3.10868e-09
2.90096e-09
2.69828e-09
2.50279e-09
2.31639e-09
2.14122e-09
1.97571e-09
1.82211e-09
1.67121e-09
1.52455e-09
1.38349e-09
1.24915e-09
1.12252e-09
1.00448e-09
8.95802e-10
7.97231e-10
7.09489e-10
6.33373e-10
5.69855e-10
5.20239e-10
4.8635e-10
4.64375e-10
4.55013e-10
4.57591e-10
4.66448e-10
4.56145e-10
4.23626e-10
3.57232e-10
2.73115e-10
1.86402e-10
1.08948e-10
4.98342e-11
1.357e-11
1.23952e-12
2.6489e-14
7.02689e-09
7.01156e-09
6.98085e-09
6.93456e-09
6.87229e-09
6.7933e-09
6.69635e-09
6.58096e-09
6.46298e-09
6.33755e-09
6.20331e-09
6.05954e-09
5.90581e-09
5.74204e-09
5.56834e-09
5.38497e-09
5.19226e-09
4.99066e-09
4.78076e-09
4.56353e-09
4.34103e-09
4.11514e-09
3.88772e-09
3.66055e-09
3.43531e-09
3.21051e-09
2.98829e-09
2.77087e-09
2.56066e-09
2.35896e-09
2.16922e-09
1.98965e-09
1.8233e-09
1.66133e-09
1.50595e-09
1.35854e-09
1.21986e-09
1.09063e-09
9.71616e-10
8.63538e-10
7.67001e-10
6.82592e-10
6.1099e-10
5.53119e-10
5.10405e-10
4.85303e-10
4.75283e-10
4.83926e-10
5.17017e-10
5.90104e-10
5.88694e-10
5.31076e-10
4.38248e-10
3.30901e-10
2.26273e-10
1.36274e-10
6.73064e-11
2.20967e-11
2.71802e-12
7.62819e-14
7.36014e-09
7.3454e-09
7.31597e-09
7.27196e-09
7.21344e-09
7.14056e-09
7.05354e-09
6.95283e-09
6.83902e-09
6.71245e-09
6.57341e-09
6.42219e-09
6.25912e-09
6.08455e-09
5.89889e-09
5.7025e-09
5.49572e-09
5.27869e-09
5.04911e-09
4.81003e-09
4.56485e-09
4.31656e-09
4.06746e-09
3.81971e-09
3.5753e-09
3.33179e-09
3.09135e-09
2.85608e-09
2.62805e-09
2.40935e-09
2.20119e-09
2.00377e-09
1.81772e-09
1.64308e-09
1.48002e-09
1.32873e-09
1.18751e-09
1.05678e-09
9.3772e-10
8.3133e-10
7.37909e-10
6.57831e-10
5.91599e-10
5.3991e-10
5.03728e-10
4.84349e-10
4.83426e-10
5.0321e-10
5.47099e-10
6.23162e-10
6.13983e-10
5.4454e-10
4.40802e-10
3.2622e-10
2.18873e-10
1.29913e-10
6.3938e-11
2.14468e-11
2.74911e-12
8.39304e-14
7.81384e-09
7.79845e-09
7.76773e-09
7.72181e-09
7.66077e-09
7.58471e-09
7.49377e-09
7.38811e-09
7.26798e-09
7.13364e-09
6.98543e-09
6.82376e-09
6.64911e-09
6.46204e-09
6.26313e-09
6.05307e-09
5.83264e-09
5.5949e-09
5.34268e-09
5.0793e-09
4.80849e-09
4.53431e-09
4.26045e-09
3.98953e-09
3.72405e-09
3.46108e-09
3.20248e-09
2.95023e-09
2.70638e-09
2.47303e-09
2.25248e-09
2.04381e-09
1.84795e-09
1.66528e-09
1.49575e-09
1.33903e-09
1.19304e-09
1.05902e-09
9.37573e-10
8.29917e-10
7.363e-10
6.57076e-10
5.92793e-10
5.44303e-10
5.129e-10
5.00479e-10
5.09606e-10
5.43017e-10
6.00742e-10
6.68659e-10
6.42177e-10
5.56313e-10
4.40734e-10
3.19585e-10
2.10265e-10
1.22675e-10
5.98911e-11
2.06053e-11
2.78259e-12
8.96602e-14
8.31242e-09
8.29606e-09
8.26342e-09
8.21459e-09
8.14964e-09
8.06864e-09
7.97166e-09
7.85881e-09
7.73026e-09
7.58628e-09
7.42718e-09
7.25344e-09
7.06561e-09
6.86436e-09
6.65037e-09
6.42417e-09
6.18576e-09
5.92646e-09
5.65025e-09
5.36121e-09
5.06358e-09
4.76181e-09
4.46054e-09
4.16372e-09
3.8738e-09
3.59276e-09
3.31663e-09
3.04783e-09
2.78867e-09
2.54143e-09
2.30896e-09
2.08981e-09
1.8849e-09
1.69521e-09
1.52079e-09
1.3575e-09
1.20617e-09
1.0678e-09
9.4361e-10
8.34261e-10
7.40014e-10
6.61213e-10
5.98461e-10
5.52796e-10
5.25936e-10
5.2076e-10
5.42291e-10
5.99748e-10
7.10778e-10
7.28214e-10
6.72066e-10
5.67306e-10
4.39797e-10
3.12379e-10
2.01465e-10
1.15555e-10
5.59559e-11
1.94969e-11
2.72929e-12
9.40413e-14
8.84354e-09
8.82613e-09
8.7914e-09
8.73944e-09
8.67029e-09
8.58396e-09
8.48047e-09
8.35986e-09
8.22225e-09
8.06783e-09
7.89691e-09
7.70997e-09
7.50775e-09
7.29125e-09
7.06189e-09
6.82156e-09
6.55744e-09
6.27201e-09
5.96887e-09
5.65219e-09
5.32652e-09
4.99662e-09
4.66742e-09
4.34402e-09
4.03034e-09
3.72868e-09
3.43351e-09
3.14734e-09
2.87257e-09
2.6115e-09
2.36703e-09
2.13744e-09
1.92345e-09
1.72632e-09
1.54591e-09
1.37724e-09
1.22127e-09
1.07912e-09
9.52123e-10
8.40982e-10
7.46115e-10
6.67749e-10
6.06457e-10
5.63404e-10
5.40358e-10
5.40093e-10
5.67184e-10
6.30035e-10
7.46272e-10
7.57256e-10
6.89611e-10
5.73223e-10
4.36963e-10
3.04773e-10
1.9282e-10
1.08568e-10
5.19637e-11
1.84049e-11
2.77323e-12
1.02216e-13
9.40691e-09
9.38842e-09
9.35154e-09
9.29636e-09
9.22288e-09
9.13106e-09
9.02086e-09
8.89224e-09
8.7452e-09
8.57979e-09
8.39619e-09
8.19473e-09
7.97598e-09
7.7408e-09
7.4905e-09
7.21991e-09
6.93487e-09
6.62419e-09
6.29341e-09
5.94795e-09
5.59318e-09
5.23443e-09
4.87701e-09
4.52627e-09
4.18765e-09
3.86461e-09
3.54989e-09
3.24613e-09
2.95572e-09
2.68101e-09
2.42494e-09
2.18553e-09
1.96325e-09
1.75898e-09
1.57229e-09
1.39793e-09
1.23716e-09
1.09116e-09
9.61265e-10
8.48826e-10
7.53844e-10
6.76287e-10
6.16891e-10
5.77335e-10
5.59734e-10
5.67066e-10
6.03322e-10
6.74023e-10
7.91006e-10
7.9128e-10
7.09135e-10
5.79411e-10
4.33518e-10
2.96275e-10
1.83509e-10
1.01291e-10
4.78132e-11
1.7039e-11
2.77167e-12
1.10392e-13
1.00049e-08
9.98533e-09
9.94621e-09
9.88769e-09
9.80975e-09
9.71231e-09
9.59525e-09
9.45844e-09
9.30177e-09
9.12513e-09
8.92855e-09
8.71214e-09
8.47623e-09
8.22121e-09
7.94716e-09
7.64672e-09
7.32922e-09
6.98651e-09
6.62374e-09
6.24659e-09
5.86081e-09
5.47207e-09
5.08595e-09
4.70796e-09
4.3436e-09
3.99851e-09
3.66389e-09
3.34241e-09
3.03648e-09
2.74842e-09
2.48121e-09
2.23271e-09
2.0034e-09
1.79453e-09
1.59934e-09
1.41847e-09
1.25274e-09
1.10311e-09
9.70818e-10
8.57482e-10
7.63333e-10
6.86285e-10
6.28985e-10
5.93654e-10
5.83216e-10
6.02107e-10
6.55844e-10
7.46613e-10
8.52972e-10
8.31797e-10
7.29191e-10
5.83963e-10
4.28478e-10
2.86991e-10
1.73973e-10
9.39169e-11
4.35521e-11
1.56191e-11
2.79009e-12
1.1998e-13
1.06407e-08
1.06199e-08
1.05784e-08
1.05164e-08
1.04338e-08
1.03305e-08
1.02063e-08
1.00611e-08
9.89456e-09
9.70645e-09
9.49661e-09
9.26505e-09
9.01235e-09
8.74021e-09
8.4295e-09
8.08807e-09
7.7251e-09
7.35033e-09
6.95393e-09
6.54334e-09
6.12521e-09
5.7057e-09
5.29062e-09
4.8856e-09
4.49625e-09
4.12833e-09
3.77354e-09
3.4344e-09
3.11317e-09
2.81206e-09
2.53398e-09
2.27649e-09
2.03961e-09
1.8236e-09
1.62199e-09
1.43582e-09
1.266e-09
1.11346e-09
9.79366e-10
8.6532e-10
7.71842e-10
6.96355e-10
6.41842e-10
6.11222e-10
6.08581e-10
6.41623e-10
7.25403e-10
8.90102e-10
9.30525e-10
8.71494e-10
7.44852e-10
5.8418e-10
4.19897e-10
2.751e-10
1.62822e-10
8.57732e-11
3.89629e-11
1.39224e-11
2.65175e-12
1.24307e-13
1.13178e-08
1.12957e-08
1.12517e-08
1.11859e-08
1.10983e-08
1.09888e-08
1.08571e-08
1.07031e-08
1.05263e-08
1.03263e-08
1.01024e-08
9.85381e-09
9.57926e-09
9.27793e-09
8.92886e-09
8.54423e-09
8.13629e-09
7.71776e-09
7.28181e-09
6.83465e-09
6.38259e-09
5.93163e-09
5.48748e-09
5.05566e-09
4.64166e-09
4.2512e-09
3.87665e-09
3.52032e-09
3.1843e-09
2.8707e-09
2.58247e-09
2.31713e-09
2.07522e-09
1.84976e-09
1.64111e-09
1.44981e-09
1.27642e-09
1.12169e-09
9.86597e-10
8.72638e-10
7.80529e-10
7.07286e-10
6.56176e-10
6.30402e-10
6.33795e-10
6.73308e-10
7.62893e-10
9.33533e-10
9.65295e-10
8.91237e-10
7.4941e-10
5.77347e-10
4.07023e-10
2.61059e-10
1.50825e-10
7.72966e-11
3.41615e-11
1.20763e-11
2.45116e-12
1.25939e-13
1.20397e-08
1.20162e-08
1.19695e-08
1.18996e-08
1.18066e-08
1.16905e-08
1.15509e-08
1.13876e-08
1.12003e-08
1.09886e-08
1.07518e-08
1.04891e-08
1.01972e-08
9.84443e-09
9.44301e-09
9.00531e-09
8.54368e-09
8.07034e-09
7.5971e-09
7.11377e-09
6.62791e-09
6.14588e-09
5.67331e-09
5.21546e-09
4.77757e-09
4.36517e-09
3.97148e-09
3.59853e-09
3.24828e-09
2.92263e-09
2.62428e-09
2.35035e-09
2.1004e-09
1.86792e-09
1.65374e-09
1.45845e-09
1.28258e-09
1.12676e-09
9.91909e-10
8.79367e-10
7.89411e-10
7.19454e-10
6.73471e-10
6.55293e-10
6.6879e-10
7.19815e-10
8.18224e-10
9.87442e-10
1.00286e-09
9.08085e-10
7.48128e-10
5.63971e-10
3.8841e-10
2.42797e-10
1.36259e-10
6.75986e-11
2.89083e-11
1.00077e-11
2.11855e-12
1.20472e-13
1.28102e-08
1.27852e-08
1.27355e-08
1.26612e-08
1.25624e-08
1.24391e-08
1.2291e-08
1.21176e-08
1.19186e-08
1.16937e-08
1.14434e-08
1.11706e-08
1.08242e-08
1.04156e-08
9.95753e-09
9.4636e-09
8.94728e-09
8.42205e-09
7.9017e-09
7.37862e-09
6.8581e-09
6.34539e-09
5.8454e-09
5.36275e-09
4.9021e-09
4.46862e-09
4.05649e-09
3.6676e-09
3.30392e-09
2.96723e-09
2.65952e-09
2.37908e-09
2.11865e-09
1.87861e-09
1.65925e-09
1.46079e-09
1.28347e-09
1.12777e-09
9.94769e-10
8.86529e-10
7.98181e-10
7.3241e-10
6.93638e-10
6.86755e-10
7.17003e-10
7.91334e-10
9.14769e-10
1.06327e-09
1.0443e-09
9.18442e-10
7.36583e-10
5.40898e-10
3.62613e-10
2.20133e-10
1.19532e-10
5.70946e-11
2.34179e-11
7.85276e-12
1.71584e-12
1.1008e-13
1.36328e-08
1.36061e-08
1.35531e-08
1.34741e-08
1.33692e-08
1.32383e-08
1.30811e-08
1.28971e-08
1.2685e-08
1.24426e-08
1.21667e-08
1.1854e-08
1.14535e-08
1.09847e-08
1.04649e-08
9.91007e-09
9.33489e-09
8.75319e-09
8.17774e-09
7.62015e-09
7.06761e-09
6.52632e-09
6.00097e-09
5.49546e-09
5.01365e-09
4.56011e-09
4.13021e-09
3.72594e-09
3.3509e-09
3.00364e-09
2.68426e-09
2.39318e-09
2.12436e-09
1.8784e-09
1.6554e-09
1.45525e-09
1.27787e-09
1.12344e-09
9.92831e-10
8.88094e-10
8.04345e-10
7.45174e-10
7.16318e-10
7.24576e-10
7.78662e-10
8.94499e-10
1.11076e-09
1.15917e-09
1.07816e-09
9.12949e-10
7.08399e-10
5.03333e-10
3.25688e-10
1.90054e-10
9.86165e-11
4.46263e-11
1.71387e-11
5.36173e-12
1.14687e-12
8.26746e-14
1.45105e-08
1.4482e-08
1.44254e-08
1.43412e-08
1.42295e-08
1.40906e-08
1.39245e-08
1.37308e-08
1.35086e-08
1.32553e-08
1.29645e-08
1.25703e-08
1.20927e-08
1.155e-08
1.09599e-08
1.03388e-08
9.70232e-09
9.06507e-09
8.44063e-09
7.84158e-09
7.25518e-09
6.68633e-09
6.13795e-09
5.61211e-09
5.11116e-09
4.63869e-09
4.19139e-09
3.77129e-09
3.38236e-09
3.02358e-09
2.69539e-09
2.39285e-09
2.11645e-09
1.86607e-09
1.64119e-09
1.44123e-09
1.2657e-09
1.11447e-09
9.8812e-10
8.87891e-10
8.10016e-10
7.59303e-10
7.4304e-10
7.69781e-10
8.49635e-10
9.92767e-10
1.18716e-09
1.19438e-09
1.07368e-09
8.78818e-10
6.57809e-10
4.4903e-10
2.77597e-10
1.53689e-10
7.49667e-11
3.14425e-11
1.09649e-11
3.05502e-12
5.91266e-13
4.49703e-14
1.54539e-08
1.54232e-08
1.53624e-08
1.5272e-08
1.51524e-08
1.5004e-08
1.48271e-08
1.4622e-08
1.43896e-08
1.41332e-08
1.37571e-08
1.32796e-08
1.27201e-08
1.20982e-08
1.14325e-08
1.07408e-08
1.00397e-08
9.3449e-09
8.67063e-09
8.02984e-09
7.41258e-09
6.82079e-09
6.25417e-09
5.71201e-09
5.19459e-09
4.70411e-09
4.23912e-09
3.80214e-09
3.39796e-09
3.02692e-09
2.685e-09
2.37347e-09
2.0921e-09
1.83976e-09
1.61533e-09
1.41785e-09
1.24655e-09
1.10104e-09
9.82561e-10
8.86323e-10
8.15637e-10
7.76173e-10
7.7727e-10
8.31472e-10
9.58914e-10
1.19827e-09
1.282e-09
1.21532e-09
1.04209e-09
8.13474e-10
5.76952e-10
3.68914e-10
2.09892e-10