/*--------------------------------*- C++ -*----------------------------------*\
| =========                 |                                                 |
| \\      /  F ield         | OpenFOAM: The Open Source CFD Toolbox           |
|  \\    /   O peration     | Version:  v1906                                 |
|   \\  /    A nd           | Web:      www.OpenFOAM.com                      |
|    \\/     M anipulation  |                                                 |
\*---------------------------------------------------------------------------*/
FoamFile
{
    version     2.0;
    format      ascii;
    class       volScalarField;
    location    "2.83";
    object      CH3O;
}
// * * * * * * * * * * * * * * * * * * * * * * * * * * * * * * * * * * * * * //

dimensions      [0 0 0 0 0 0 0];


internalField   nonuniform List<scalar> 
26400
(
8.31515e-12
8.30424e-12
8.28262e-12
8.25031e-12
8.20737e-12
8.1539e-12
8.09002e-12
8.01586e-12
7.93161e-12
7.83745e-12
7.73358e-12
7.62026e-12
7.49772e-12
7.36626e-12
7.22616e-12
7.07777e-12
6.9214e-12
6.75742e-12
6.58621e-12
6.40817e-12
6.22369e-12
6.0332e-12
5.83715e-12
5.63599e-12
5.43017e-12
5.22018e-12
5.00649e-12
4.78961e-12
4.57003e-12
4.34826e-12
4.12608e-12
3.90402e-12
3.6814e-12
3.45879e-12
3.23674e-12
3.01583e-12
2.79662e-12
2.57971e-12
2.36569e-12
2.15511e-12
1.9487e-12
1.74712e-12
1.55109e-12
1.36139e-12
1.17884e-12
1.00437e-12
8.39024e-13
6.83999e-13
5.40708e-13
4.10816e-13
2.96259e-13
1.99187e-13
1.21674e-13
6.5084e-14
2.89667e-14
1.00127e-14
2.4477e-15
3.63139e-16
2.29291e-17
5.53306e-19
8.71466e-12
8.70324e-12
8.68058e-12
8.64672e-12
8.60171e-12
8.54567e-12
8.47872e-12
8.40101e-12
8.31272e-12
8.21405e-12
8.10522e-12
7.98649e-12
7.85812e-12
7.72042e-12
7.57369e-12
7.41828e-12
7.25455e-12
7.08288e-12
6.90366e-12
6.71732e-12
6.52428e-12
6.32499e-12
6.11991e-12
5.90953e-12
5.69433e-12
5.47481e-12
5.25148e-12
5.02486e-12
4.79548e-12
4.56387e-12
4.33182e-12
4.09986e-12
3.86734e-12
3.63488e-12
3.40304e-12
3.17243e-12
2.94361e-12
2.71721e-12
2.49384e-12
2.27401e-12
2.05849e-12
1.84797e-12
1.6432e-12
1.44495e-12
1.25406e-12
1.07144e-12
8.9812e-13
7.35279e-13
5.84297e-13
4.46815e-13
3.24788e-13
2.20452e-13
1.36112e-13
7.35817e-14
3.30008e-14
1.14173e-14
2.77014e-15
4.06341e-16
2.56288e-17
6.2339e-19
9.21951e-12
9.20738e-12
9.18331e-12
9.14734e-12
9.09953e-12
9.04e-12
8.96889e-12
8.88636e-12
8.79261e-12
8.68784e-12
8.57231e-12
8.44629e-12
8.31006e-12
8.16396e-12
8.00832e-12
7.84351e-12
7.66992e-12
7.48796e-12
7.29805e-12
7.10066e-12
6.89623e-12
6.68526e-12
6.46825e-12
6.2457e-12
6.01814e-12
5.78611e-12
5.55015e-12
5.31082e-12
5.06868e-12
4.8243e-12
4.5795e-12
4.33481e-12
4.0896e-12
3.84453e-12
3.60022e-12
3.3573e-12
3.11633e-12
2.87798e-12
2.64291e-12
2.41158e-12
2.18475e-12
1.96323e-12
1.74776e-12
1.53914e-12
1.33821e-12
1.14588e-12
9.63182e-13
7.91276e-13
6.31528e-13
4.85566e-13
3.55352e-13
2.43197e-13
1.51624e-13
8.28252e-14
3.74969e-14
1.3032e-14
3.1483e-15
4.57339e-16
2.86979e-17
6.99326e-19
9.77137e-12
9.75844e-12
9.73278e-12
9.69441e-12
9.64344e-12
9.57997e-12
9.50415e-12
9.41618e-12
9.31625e-12
9.20461e-12
9.08152e-12
8.94728e-12
8.8022e-12
8.64665e-12
8.48099e-12
8.30562e-12
8.12097e-12
7.92747e-12
7.72561e-12
7.51586e-12
7.29873e-12
7.07474e-12
6.84444e-12
6.60837e-12
6.3671e-12
6.12122e-12
5.8713e-12
5.61795e-12
5.36177e-12
5.10337e-12
4.84461e-12
4.58601e-12
4.32699e-12
4.06822e-12
3.8104e-12
3.55418e-12
3.30011e-12
3.0489e-12
2.80128e-12
2.55765e-12
2.3188e-12
2.08558e-12
1.85878e-12
1.63921e-12
1.42773e-12
1.22524e-12
1.03277e-12
8.5147e-13
6.82668e-13
5.27959e-13
3.89273e-13
2.68938e-13
1.69611e-13
9.38538e-14
4.29842e-14
1.50093e-14
3.60286e-15
5.13809e-16
3.19186e-17
7.82203e-19
1.036e-11
1.03462e-11
1.03188e-11
1.02778e-11
1.02234e-11
1.01557e-11
1.00747e-11
9.98081e-12
9.87417e-12
9.75504e-12
9.62373e-12
9.48055e-12
9.32587e-12
9.16005e-12
8.98351e-12
8.79669e-12
8.60004e-12
8.39406e-12
8.17924e-12
7.95613e-12
7.72528e-12
7.48724e-12
7.24261e-12
6.99198e-12
6.73596e-12
6.47519e-12
6.21029e-12
5.94191e-12
5.67069e-12
5.3973e-12
5.12363e-12
4.8502e-12
4.57648e-12
4.30318e-12
4.031e-12
3.76068e-12
3.49276e-12
3.22798e-12
2.96709e-12
2.7105e-12
2.45901e-12
2.21345e-12
1.97473e-12
1.74367e-12
1.52111e-12
1.30799e-12
1.10531e-12
9.14206e-13
7.35998e-13
5.72246e-13
4.24853e-13
2.96149e-13
1.88902e-13
1.0599e-13
4.92852e-14
1.73363e-14
4.13123e-15
5.79261e-16
3.55994e-17
8.74822e-19
1.09852e-11
1.09704e-11
1.09411e-11
1.08974e-11
1.08392e-11
1.07668e-11
1.06803e-11
1.058e-11
1.04661e-11
1.03389e-11
1.01987e-11
1.00459e-11
9.8808e-12
9.7039e-12
9.51563e-12
9.31646e-12
9.10689e-12
8.88746e-12
8.65872e-12
8.42124e-12
8.17564e-12
7.92251e-12
7.66251e-12
7.39627e-12
7.12447e-12
6.84777e-12
6.56687e-12
6.28245e-12
5.99521e-12
5.70586e-12
5.41634e-12
5.12718e-12
4.83789e-12
4.5492e-12
4.26189e-12
3.97669e-12
3.69419e-12
3.41514e-12
3.14033e-12
2.87017e-12
2.60548e-12
2.34712e-12
2.096e-12
1.853e-12
1.619e-12
1.39492e-12
1.18175e-12
9.80622e-13
7.92811e-13
6.19836e-13
4.63542e-13
3.26225e-13
2.10696e-13
1.20113e-13
5.71256e-14
2.02251e-14
4.77862e-15
6.54411e-16
3.95897e-17
9.73037e-19
1.16487e-11
1.1633e-11
1.16017e-11
1.15548e-11
1.14927e-11
1.14152e-11
1.13228e-11
1.12155e-11
1.10938e-11
1.09579e-11
1.08081e-11
1.06448e-11
1.04686e-11
1.02797e-11
1.00788e-11
9.86636e-12
9.64289e-12
9.40899e-12
9.16527e-12
8.91236e-12
8.65092e-12
8.38162e-12
8.10513e-12
7.82218e-12
7.53348e-12
7.23976e-12
6.94176e-12
6.64022e-12
6.33591e-12
6.02956e-12
5.72319e-12
5.41733e-12
5.11153e-12
4.80657e-12
4.50326e-12
4.20238e-12
3.90454e-12
3.61051e-12
3.32108e-12
3.03668e-12
2.75816e-12
2.4864e-12
2.22231e-12
1.96686e-12
1.72092e-12
1.48541e-12
1.26133e-12
1.04977e-12
8.51996e-13
6.6949e-13
5.04066e-13
3.57966e-13
2.34004e-13
1.35517e-13
6.57177e-14
2.35194e-14
5.5135e-15
7.31835e-16
4.34659e-17
1.06799e-18
1.23532e-11
1.23363e-11
1.23029e-11
1.22528e-11
1.21863e-11
1.21034e-11
1.20045e-11
1.18898e-11
1.17596e-11
1.16142e-11
1.14541e-11
1.12796e-11
1.10913e-11
1.08896e-11
1.06751e-11
1.04483e-11
1.02098e-11
9.96034e-12
9.70051e-12
9.43102e-12
9.15257e-12
8.8659e-12
8.57175e-12
8.27088e-12
7.96409e-12
7.65215e-12
7.33588e-12
7.01607e-12
6.69353e-12
6.36909e-12
6.04479e-12
5.72118e-12
5.39786e-12
5.07567e-12
4.75546e-12
4.43806e-12
4.12412e-12
3.81447e-12
3.50954e-12
3.21015e-12
2.91715e-12
2.63144e-12
2.35392e-12
2.08556e-12
1.82729e-12
1.58002e-12
1.34473e-12
1.12249e-12
9.14508e-13
7.22218e-13
5.47404e-13
3.92277e-13
2.59635e-13
1.5289e-13
7.56958e-14
2.75055e-14
6.41016e-15
8.20964e-16
4.77384e-17
1.17245e-18
1.31014e-11
1.30833e-11
1.30475e-11
1.29939e-11
1.29227e-11
1.2834e-11
1.27282e-11
1.26055e-11
1.24662e-11
1.23106e-11
1.21393e-11
1.19527e-11
1.17514e-11
1.15358e-11
1.13065e-11
1.10643e-11
1.08097e-11
1.05435e-11
1.02664e-11
9.97903e-12
9.68231e-12
9.37699e-12
9.06388e-12
8.74381e-12
8.41764e-12
8.0862e-12
7.75038e-12
7.41105e-12
7.06906e-12
6.72531e-12
6.38191e-12
6.03942e-12
5.69749e-12
5.35702e-12
5.01888e-12
4.68398e-12
4.35297e-12
4.0267e-12
3.70561e-12
3.3906e-12
3.08253e-12
2.7823e-12
2.49081e-12
2.20904e-12
1.93798e-12
1.67854e-12
1.43168e-12
1.19843e-12
9.79918e-13
7.77445e-13
5.92938e-13
4.28585e-13
2.8712e-13
1.71949e-13
8.69177e-14
3.21389e-14
7.44938e-15
9.10568e-16
5.12269e-17
1.24135e-18
1.38965e-11
1.38772e-11
1.38387e-11
1.37813e-11
1.37049e-11
1.361e-11
1.34966e-11
1.33653e-11
1.32162e-11
1.30497e-11
1.28665e-11
1.26668e-11
1.24514e-11
1.22209e-11
1.19758e-11
1.1717e-11
1.1445e-11
1.11608e-11
1.0865e-11
1.05585e-11
1.02421e-11
9.91678e-12
9.58333e-12
9.24267e-12
8.89572e-12
8.54341e-12
8.18667e-12
7.82645e-12
7.46369e-12
7.09932e-12
6.73555e-12
6.37296e-12
6.01124e-12
5.65136e-12
5.29426e-12
4.94089e-12
4.592e-12
4.24803e-12
3.90988e-12
3.57844e-12
3.25459e-12
2.93922e-12
2.63325e-12
2.33763e-12
2.05336e-12
1.78141e-12
1.52275e-12
1.27842e-12
1.04893e-12
8.35948e-13
6.41476e-13
4.67652e-13
3.17194e-13
1.93502e-13
9.97907e-14
3.75702e-14
8.69099e-15
1.00643e-15
5.44998e-17
1.29496e-18
1.4742e-11
1.47213e-11
1.468e-11
1.46184e-11
1.45366e-11
1.44347e-11
1.43132e-11
1.41724e-11
1.40127e-11
1.38346e-11
1.36385e-11
1.34249e-11
1.31944e-11
1.29478e-11
1.26858e-11
1.2409e-11
1.21184e-11
1.18148e-11
1.14989e-11
1.11718e-11
1.08344e-11
1.04875e-11
1.01323e-11
9.76951e-12
9.4003e-12
9.02562e-12
8.64649e-12
8.26392e-12
7.87893e-12
7.49253e-12
7.10701e-12
6.72296e-12
6.34014e-12
5.95958e-12
5.58231e-12
5.20915e-12
4.84112e-12
4.47864e-12
4.12263e-12
3.77401e-12
3.43366e-12
3.1025e-12
2.78144e-12
2.47142e-12
2.17344e-12
1.88851e-12
1.61758e-12
1.36167e-12
1.12109e-12
8.97454e-13
6.92821e-13
5.09348e-13
3.49928e-13
2.1868e-13
1.1436e-13
4.37586e-14
1.00885e-14
1.09406e-15
5.61569e-17
1.28323e-18
1.56419e-11
1.56196e-11
1.55754e-11
1.55093e-11
1.54215e-11
1.53122e-11
1.51819e-11
1.5031e-11
1.48598e-11
1.46689e-11
1.44589e-11
1.42303e-11
1.39837e-11
1.37199e-11
1.34396e-11
1.31437e-11
1.28331e-11
1.25086e-11
1.21713e-11
1.18221e-11
1.1462e-11
1.10921e-11
1.07133e-11
1.03269e-11
9.93383e-12
9.53518e-12
9.13207e-12
8.72558e-12
8.31681e-12
7.90684e-12
7.49805e-12
7.09104e-12
6.68563e-12
6.28293e-12
5.884e-12
5.4897e-12
5.10156e-12
4.71958e-12
4.34475e-12
3.97802e-12
3.62034e-12
3.27262e-12
2.9358e-12
2.61082e-12
2.29864e-12
2.00032e-12
1.7168e-12
1.44905e-12
1.19723e-12
9.62819e-13
7.47787e-13
5.54288e-13
3.85067e-13
2.44052e-13
1.30034e-13
5.07076e-14
1.16683e-14
1.1798e-15
5.74765e-17
1.24313e-18
1.66005e-11
1.65766e-11
1.65292e-11
1.64582e-11
1.6364e-11
1.62468e-11
1.6107e-11
1.59451e-11
1.57615e-11
1.55569e-11
1.53319e-11
1.50871e-11
1.48232e-11
1.45409e-11
1.42411e-11
1.39247e-11
1.35926e-11
1.32459e-11
1.28856e-11
1.25127e-11
1.21283e-11
1.17337e-11
1.13299e-11
1.09181e-11
1.04994e-11
1.00751e-11
9.64633e-12
9.21423e-12
8.78e-12
8.34481e-12
7.9111e-12
7.47952e-12
7.04997e-12
6.62363e-12
6.20165e-12
5.785e-12
5.37526e-12
4.97244e-12
4.57755e-12
4.19157e-12
3.81548e-12
3.45025e-12
3.09683e-12
2.75615e-12
2.42919e-12
2.11695e-12
1.82043e-12
1.54056e-12
1.27731e-12
1.03207e-12
8.06645e-13
6.03231e-13
4.24324e-13
2.72779e-13
1.48117e-13
5.89593e-14
1.35349e-14
1.26766e-15
5.87309e-17
1.1887e-18
1.76227e-11
1.75971e-11
1.75462e-11
1.747e-11
1.73689e-11
1.72432e-11
1.70933e-11
1.69197e-11
1.67229e-11
1.65036e-11
1.62624e-11
1.60002e-11
1.57178e-11
1.54158e-11
1.50951e-11
1.47568e-11
1.44018e-11
1.40313e-11
1.36463e-11
1.32481e-11
1.28379e-11
1.24168e-11
1.19861e-11
1.15471e-11
1.11011e-11
1.06493e-11
1.0193e-11
9.73354e-12
9.27206e-12
8.80986e-12
8.34945e-12
7.89151e-12
7.43603e-12
6.98425e-12
6.53736e-12
6.09698e-12
5.66423e-12
5.23912e-12
4.82275e-12
4.41618e-12
4.02045e-12
3.63656e-12
3.26549e-12
2.90821e-12
2.56568e-12
2.23888e-12
1.92886e-12
1.6365e-12
1.36161e-12
1.10547e-12
8.69771e-13
6.56921e-13
4.70078e-13
3.05479e-13
1.68963e-13
6.90148e-14
1.5821e-14
1.44845e-15
6.30426e-17
1.17917e-18
1.87137e-11
1.86862e-11
1.86316e-11
1.855e-11
1.84416e-11
1.83069e-11
1.81463e-11
1.79602e-11
1.77494e-11
1.75145e-11
1.72563e-11
1.69755e-11
1.66732e-11
1.63502e-11
1.60074e-11
1.56457e-11
1.52664e-11
1.48705e-11
1.44594e-11
1.40342e-11
1.35964e-11
1.31471e-11
1.26878e-11
1.22198e-11
1.17445e-11
1.12633e-11
1.07776e-11
1.02887e-11
9.79798e-12
9.30682e-12
8.81779e-12
8.33159e-12
7.84833e-12
7.36933e-12
6.89592e-12
6.42979e-12
5.97212e-12
5.52293e-12
5.08337e-12
4.65458e-12
4.23766e-12
3.83365e-12
3.44359e-12
3.06849e-12
2.70931e-12
2.36704e-12
2.04269e-12
1.73721e-12
1.45023e-12
1.18287e-12
9.36552e-13
7.13458e-13
5.16426e-13
3.41135e-13
1.93218e-13
8.16749e-14
1.89446e-14
1.73447e-15
7.18381e-17
1.25829e-18
1.98791e-11
1.98497e-11
1.97912e-11
1.97038e-11
1.95878e-11
1.94435e-11
1.92716e-11
1.90725e-11
1.88469e-11
1.85956e-11
1.83194e-11
1.80192e-11
1.76959e-11
1.73507e-11
1.69846e-11
1.65984e-11
1.61935e-11
1.57709e-11
1.53321e-11
1.48784e-11
1.44113e-11
1.39321e-11
1.34424e-11
1.29435e-11
1.24371e-11
1.19245e-11
1.14074e-11
1.08871e-11
1.03651e-11
9.84298e-12
9.32322e-12
8.80661e-12
8.29335e-12
7.78486e-12
7.28305e-12
6.78923e-12
6.30466e-12
5.82939e-12
5.36467e-12
4.91173e-12
4.47172e-12
4.0458e-12
3.63504e-12
3.24051e-12
2.86324e-12
2.50422e-12
2.16447e-12
1.845e-12
1.54535e-12
1.26648e-12
1.00954e-12
7.76295e-13
5.69239e-13
3.83437e-13
2.23792e-13
9.91861e-14
2.40972e-14
2.2829e-15
9.47907e-17
1.61279e-18
2.11255e-11
2.10941e-11
2.10316e-11
2.09382e-11
2.08142e-11
2.066e-11
2.04763e-11
2.02635e-11
2.00225e-11
1.97541e-11
1.94591e-11
1.91385e-11
1.87933e-11
1.84248e-11
1.8034e-11
1.76222e-11
1.71904e-11
1.674e-11
1.62724e-11
1.57889e-11
1.52913e-11
1.47808e-11
1.42592e-11
1.3728e-11
1.31888e-11
1.26432e-11
1.20927e-11
1.1539e-11
1.09837e-11
1.04283e-11
9.87554e-12
9.32625e-12
8.78076e-12
8.24061e-12
7.70786e-12
7.18388e-12
6.67e-12
6.16629e-12
5.67408e-12
5.19464e-12
4.72927e-12
4.27917e-12
3.84554e-12
3.4295e-12
3.03217e-12
2.65459e-12
2.29783e-12
1.96297e-12
1.64966e-12
1.35866e-12
1.09088e-12
8.47612e-13
6.30914e-13
4.35127e-13
2.63887e-13
1.24913e-13
3.34813e-14
3.47973e-15
1.6181e-16
2.85037e-18
2.24599e-11
2.24264e-11
2.23598e-11
2.22602e-11
2.2128e-11
2.19638e-11
2.1768e-11
2.15413e-11
2.12845e-11
2.09985e-11
2.06842e-11
2.03427e-11
1.9975e-11
1.95824e-11
1.91661e-11
1.87275e-11
1.82679e-11
1.77885e-11
1.72907e-11
1.67762e-11
1.62464e-11
1.57031e-11
1.51481e-11
1.45832e-11
1.40098e-11
1.34298e-11
1.28447e-11
1.22563e-11
1.16661e-11
1.10758e-11
1.04882e-11
9.90414e-12
9.324e-12
8.75012e-12
8.184e-12
7.62716e-12
7.08108e-12
6.54595e-12
6.02323e-12
5.51431e-12
5.02056e-12
4.54328e-12
4.08377e-12
3.64325e-12
3.22292e-12
2.82392e-12
2.44734e-12
2.09423e-12
1.76553e-12
1.4608e-12
1.18089e-12
9.26829e-13
7.00297e-13
4.95218e-13
3.1374e-13
1.60792e-13
4.97994e-14
6.21132e-15
4.03168e-16
8.33643e-18
2.38889e-11
2.38534e-11
2.37826e-11
2.36769e-11
2.35366e-11
2.33622e-11
2.31544e-11
2.29137e-11
2.26412e-11
2.23376e-11
2.2004e-11
2.16414e-11
2.12511e-11
2.08343e-11
2.03923e-11
1.99266e-11
1.94385e-11
1.89297e-11
1.84012e-11
1.78548e-11
1.72925e-11
1.67159e-11
1.61268e-11
1.55269e-11
1.4918e-11
1.43019e-11
1.36803e-11
1.30551e-11
1.24279e-11
1.18007e-11
1.11762e-11
1.05553e-11
9.93867e-12
9.3287e-12
8.72695e-12
8.13495e-12
7.55423e-12
6.98492e-12
6.42856e-12
5.88665e-12
5.36065e-12
4.85202e-12
4.36217e-12
3.89247e-12
3.44427e-12
3.0189e-12
2.61761e-12
2.24166e-12
1.89228e-12
1.56925e-12
1.27356e-12
1.00617e-12
7.68386e-13
5.54326e-13
3.64713e-13
2.01824e-13
7.52965e-14
1.32635e-14
1.52575e-15
4.23189e-17
2.54191e-11
2.53815e-11
2.53067e-11
2.5195e-11
2.50467e-11
2.48624e-11
2.46427e-11
2.43884e-11
2.41003e-11
2.37795e-11
2.34269e-11
2.30437e-11
2.26311e-11
2.21905e-11
2.17232e-11
2.12307e-11
2.07145e-11
2.01762e-11
1.96174e-11
1.90397e-11
1.84449e-11
1.78348e-11
1.72113e-11
1.65762e-11
1.59314e-11
1.52788e-11
1.46202e-11
1.39574e-11
1.32924e-11
1.26269e-11
1.19639e-11
1.13043e-11
1.06496e-11
1.00014e-11
9.36156e-12
8.73165e-12
8.11331e-12
7.50683e-12
6.91375e-12
6.33561e-12
5.77393e-12
5.23024e-12
4.70602e-12
4.20277e-12
3.72195e-12
3.26502e-12
2.83342e-12
2.42861e-12
2.05215e-12
1.70436e-12
1.38667e-12
1.10033e-12
8.46558e-13
6.21197e-13
4.23901e-13
2.54962e-13
1.19952e-13
3.57019e-14
7.40547e-15
3.17733e-16
2.70692e-11
2.70297e-11
2.6951e-11
2.68334e-11
2.66775e-11
2.64836e-11
2.62526e-11
2.59852e-11
2.56822e-11
2.53448e-11
2.4974e-11
2.45709e-11
2.4137e-11
2.36735e-11
2.31818e-11
2.26636e-11
2.21204e-11
2.15538e-11
2.09654e-11
2.0357e-11
1.97304e-11
1.90875e-11
1.84303e-11
1.77606e-11
1.70806e-11
1.6392e-11
1.5697e-11
1.49973e-11
1.4295e-11
1.35919e-11
1.2891e-11
1.21933e-11
1.15005e-11
1.08143e-11
1.01363e-11
9.46829e-12
8.81178e-12
8.16832e-12
7.5382e-12
6.92299e-12
6.32426e-12
5.74356e-12
5.18244e-12
4.64248e-12
4.12528e-12
3.63244e-12
3.16546e-12
2.72591e-12
2.31566e-12
1.93675e-12
1.59026e-12
1.27819e-12
1.00191e-12
7.61555e-13
5.53566e-13
3.77844e-13
2.31313e-13
1.21868e-13
3.83991e-14
2.17579e-15
2.88368e-11
2.87927e-11
2.8705e-11
2.85738e-11
2.83999e-11
2.81837e-11
2.7926e-11
2.76279e-11
2.72903e-11
2.69143e-11
2.65013e-11
2.60525e-11
2.55696e-11
2.5054e-11
2.45075e-11
2.39317e-11
2.33285e-11
2.26995e-11
2.20468e-11
2.13723e-11
2.06783e-11
1.99669e-11
1.92403e-11
1.85009e-11
1.77508e-11
1.69923e-11
1.62277e-11
1.54591e-11
1.46889e-11
1.3919e-11
1.31526e-11
1.23919e-11
1.16379e-11
1.08927e-11
1.01582e-11
9.43641e-12
8.72908e-12
8.03645e-12
7.36038e-12
6.70267e-12
6.0651e-12
5.44939e-12
4.85726e-12
4.29045e-12
3.75076e-12
3.24026e-12
2.76155e-12
2.31735e-12
1.91e-12
1.54017e-12
1.20988e-12
9.20773e-13
6.74087e-13
4.65163e-13
2.94453e-13
1.62405e-13
6.86507e-14
1.57376e-14
1.36836e-15
3.12963e-17
3.07046e-11
3.06553e-11
3.05571e-11
3.04105e-11
3.02159e-11
2.99741e-11
2.96862e-11
2.9353e-11
2.89759e-11
2.85561e-11
2.80952e-11
2.75948e-11
2.70566e-11
2.64823e-11
2.58741e-11
2.52338e-11
2.45633e-11
2.38647e-11
2.31404e-11
2.2393e-11
2.16248e-11
2.08384e-11
2.00364e-11
1.92213e-11
1.83959e-11
1.75626e-11
1.67242e-11
1.58831e-11
1.5042e-11
1.42032e-11
1.33702e-11
1.25453e-11
1.173e-11
1.09267e-11
1.01375e-11
9.36459e-12
8.60834e-12
7.87094e-12
7.15458e-12
6.46141e-12
5.79355e-12
5.1531e-12
4.5422e-12
3.96297e-12
3.41757e-12
2.90818e-12
2.43694e-12
2.00592e-12
1.61585e-12
1.26897e-12
9.675e-13
7.13465e-13
5.01206e-13
3.29929e-13
1.97915e-13
1.02238e-13
3.97351e-14
8.21527e-15
6.32179e-16
1.31144e-17
3.26781e-11
3.26233e-11
3.2514e-11
3.23508e-11
3.21344e-11
3.18655e-11
3.15453e-11
3.1175e-11
3.0756e-11
3.029e-11
2.97785e-11
2.92235e-11
2.8627e-11
2.79912e-11
2.73182e-11
2.66097e-11
2.58685e-11
2.50972e-11
2.42984e-11
2.3475e-11
2.26299e-11
2.17659e-11
2.08861e-11
1.99934e-11
1.90908e-11
1.81812e-11
1.72678e-11
1.63534e-11
1.54409e-11
1.45332e-11
1.3634e-11
1.27458e-11
1.18705e-11
1.10107e-11
1.0169e-11
9.34561e-12
8.54303e-12
7.76376e-12
7.01019e-12
6.28468e-12
5.58953e-12
4.92705e-12
4.29953e-12
3.7093e-12
3.15876e-12
2.6504e-12
2.1868e-12
1.76853e-12
1.39751e-12
1.07512e-12
8.02282e-13
5.79448e-13
3.98354e-13
2.56328e-13
1.49751e-13
7.46318e-14
2.77034e-14
5.36339e-15
3.7333e-16
6.79069e-18
3.47598e-11
3.46992e-11
3.45784e-11
3.4398e-11
3.41588e-11
3.38617e-11
3.35079e-11
3.3099e-11
3.26365e-11
3.21223e-11
3.15583e-11
3.09468e-11
3.029e-11
2.95904e-11
2.88497e-11
2.80708e-11
2.72567e-11
2.64104e-11
2.5535e-11
2.46337e-11
2.37097e-11
2.27665e-11
2.18072e-11
2.08354e-11
1.98543e-11
1.88674e-11
1.7878e-11
1.68894e-11
1.59051e-11
1.49282e-11
1.39627e-11
1.30114e-11
1.20767e-11
1.11617e-11
1.02665e-11
9.39385e-12
8.54662e-12
7.72746e-12
6.93898e-12
6.18373e-12
5.4642e-12
4.78282e-12
4.14201e-12
3.54416e-12
2.99163e-12
2.48671e-12
2.03162e-12
1.62614e-12
1.27147e-12
9.68069e-13
7.15456e-13
5.12274e-13
3.4896e-13
2.22375e-13
1.28776e-13
6.39044e-14
2.40352e-14
4.85999e-15
3.41878e-16
6.35955e-18
3.69477e-11
3.68811e-11
3.67484e-11
3.65501e-11
3.62872e-11
3.59608e-11
3.55722e-11
3.51232e-11
3.46157e-11
3.40516e-11
3.34334e-11
3.27634e-11
3.20443e-11
3.1278e-11
3.04675e-11
2.9616e-11
2.87269e-11
2.78036e-11
2.68496e-11
2.58685e-11
2.4864e-11
2.38398e-11
2.27996e-11
2.17472e-11
2.06863e-11
1.96208e-11
1.85543e-11
1.74906e-11
1.64335e-11
1.53865e-11
1.4354e-11
1.33389e-11
1.23439e-11
1.13721e-11
1.04238e-11
9.50221e-12
8.61041e-12
7.7513e-12
6.92766e-12
6.14215e-12
5.39734e-12
4.69575e-12
4.0398e-12
3.43191e-12
2.87442e-12
2.36955e-12
1.91916e-12
1.52275e-12
1.18105e-12
8.9337e-13
6.57092e-13
4.69265e-13
3.1901e-13
2.03113e-13
1.17762e-13
5.87625e-14
2.25595e-14
4.87427e-15
3.58858e-16
6.59296e-18
3.92414e-11
3.91686e-11
3.90234e-11
3.88066e-11
3.85191e-11
3.81621e-11
3.77374e-11
3.72467e-11
3.66925e-11
3.60769e-11
3.54025e-11
3.46722e-11
3.38878e-11
3.30528e-11
3.21704e-11
3.12443e-11
3.02782e-11
2.92759e-11
2.82414e-11
2.71786e-11
2.60916e-11
2.49846e-11
2.38617e-11
2.2727e-11
2.15848e-11
2.04392e-11
1.92941e-11
1.81539e-11
1.70225e-11
1.59041e-11
1.48034e-11
1.37238e-11
1.26685e-11
1.16376e-11
1.06347e-11
9.66312e-12
8.72609e-12
7.82657e-12
6.96742e-12
6.15135e-12
5.38097e-12
4.65879e-12
3.98724e-12
3.36872e-12
2.80561e-12
2.30027e-12
1.8523e-12
1.46305e-12
1.1328e-12
8.59652e-13
6.3503e-13
4.54783e-13
3.09568e-13
1.97529e-13
1.15449e-13
5.89841e-14
2.38308e-14
5.74666e-15
4.77312e-16
9.6256e-18
4.16407e-11
4.15616e-11
4.14036e-11
4.11677e-11
4.08548e-11
4.04662e-11
4.00034e-11
3.94698e-11
3.8868e-11
3.81991e-11
3.74662e-11
3.66722e-11
3.58206e-11
3.49148e-11
3.39587e-11
3.2956e-11
3.19109e-11
3.08276e-11
2.97105e-11
2.85638e-11
2.73923e-11
2.62005e-11
2.4993e-11
2.37745e-11
2.25494e-11
2.13219e-11
2.00966e-11
1.8878e-11
1.76705e-11
1.64783e-11
1.53069e-11
1.41599e-11
1.30408e-11
1.19501e-11
1.08918e-11
9.86937e-12
8.88607e-12
7.94491e-12
7.04883e-12
6.20056e-12
5.40269e-12
4.65769e-12
3.9679e-12
3.3356e-12
2.76308e-12
2.25272e-12
1.80426e-12
1.41948e-12
1.10002e-12
8.49324e-13
6.33865e-13
4.54165e-13
3.09752e-13
1.9876e-13
1.17813e-13
6.23255e-14
2.72226e-14
7.90078e-15
8.78295e-16
2.25726e-17
4.41483e-11
4.40625e-11
4.38914e-11
4.3636e-11
4.32974e-11
4.28772e-11
4.23772e-11
4.17998e-11
4.11476e-11
4.04232e-11
3.96299e-11
3.87711e-11
3.78505e-11
3.68719e-11
3.58396e-11
3.47579e-11
3.36312e-11
3.24642e-11
3.12615e-11
3.0028e-11
2.87689e-11
2.74893e-11
2.61942e-11
2.48888e-11
2.35779e-11
2.2266e-11
2.0958e-11
1.96586e-11
1.83727e-11
1.71048e-11
1.58602e-11
1.46429e-11
1.3456e-11
1.23031e-11
1.11878e-11
1.01134e-11
9.08254e-12
8.09826e-12
7.16371e-12
6.28179e-12
5.45502e-12
4.68578e-12
3.97631e-12
3.32873e-12
2.74499e-12
2.22678e-12
1.77545e-12
1.39187e-12
1.07636e-12
8.29293e-13
6.15836e-13
4.37715e-13
2.95373e-13
1.87281e-13
1.09789e-13
5.77166e-14
2.53436e-14
7.58349e-15
8.82926e-16
2.52329e-17
4.67704e-11
4.66776e-11
4.64928e-11
4.62169e-11
4.58511e-11
4.53973e-11
4.48575e-11
4.42341e-11
4.35301e-11
4.27486e-11
4.1893e-11
4.09672e-11
3.99752e-11
3.89215e-11
3.78105e-11
3.66471e-11
3.54362e-11
3.41826e-11
3.28914e-11
3.15682e-11
3.02187e-11
2.88483e-11
2.74628e-11
2.60677e-11
2.46684e-11
2.32696e-11
2.18765e-11
2.04944e-11
1.91282e-11
1.77829e-11
1.64643e-11
1.51764e-11
1.39227e-11
1.2707e-11
1.15329e-11
1.0404e-11
9.32277e-12
8.29271e-12
7.31686e-12
6.39825e-12
5.53938e-12
4.74262e-12
4.01018e-12
3.34412e-12
2.74635e-12
2.21855e-12
1.7621e-12
1.37774e-12
1.06451e-12
8.16374e-13
6.0134e-13
4.23133e-13
2.82328e-13
1.76806e-13
1.0232e-13
5.32028e-14
2.33341e-14
7.22532e-15
8.90148e-16
2.72899e-17
4.95099e-11
4.94099e-11
4.92107e-11
4.89133e-11
4.85192e-11
4.80303e-11
4.74489e-11
4.67777e-11
4.60199e-11
4.51789e-11
4.42586e-11
4.32632e-11
4.21972e-11
4.10654e-11
3.98727e-11
3.86246e-11
3.73263e-11
3.59828e-11
3.46001e-11
3.3184e-11
3.17408e-11
3.02766e-11
2.87974e-11
2.73093e-11
2.58183e-11
2.433e-11
2.28491e-11
2.13814e-11
1.99323e-11
1.8507e-11
1.71118e-11
1.57509e-11
1.4428e-11
1.31472e-11
1.19124e-11
1.07262e-11
9.59206e-12
8.51362e-12
7.49416e-12
6.53661e-12
5.64353e-12
4.81727e-12
4.06003e-12
3.37385e-12
2.76064e-12
2.22215e-12
1.76017e-12
1.37681e-12
1.07541e-12
8.13611e-13
5.92245e-13
4.11706e-13
2.71024e-13
1.67265e-13
9.53973e-14
4.90329e-14
2.14601e-14
6.77402e-15
8.68374e-16
2.8892e-17
5.23742e-11
5.22666e-11
5.20523e-11
5.17325e-11
5.13087e-11
5.07831e-11
5.01582e-11
4.9437e-11
4.8623e-11
4.772e-11
4.67321e-11
4.56641e-11
4.45209e-11
4.33077e-11
4.20301e-11
4.06939e-11
3.93043e-11
3.78672e-11
3.63892e-11
3.48767e-11
3.33363e-11
3.17746e-11
3.01983e-11
2.86139e-11
2.70278e-11
2.54463e-11
2.38743e-11
2.23177e-11
2.07825e-11
1.92741e-11
1.77993e-11
1.63627e-11
1.49677e-11
1.3619e-11
1.23206e-11
1.10749e-11
9.88572e-12
8.75676e-12
7.69147e-12
6.69285e-12
5.76352e-12
4.90581e-12
4.12184e-12
3.41364e-12
2.783e-12
2.23153e-12
1.76064e-12
1.37196e-12
1.06841e-12
8.04093e-13
5.80997e-13
4.00098e-13
2.60415e-13
1.58595e-13
8.91257e-14
4.51673e-14
1.96388e-14
6.34488e-15
8.79087e-16
3.16317e-17
5.53719e-11
5.52563e-11
5.50262e-11
5.46827e-11
5.42278e-11
5.36636e-11
5.29931e-11
5.22195e-11
5.13465e-11
5.03784e-11
4.93197e-11
4.81756e-11
4.69514e-11
4.56528e-11
4.42859e-11
4.28568e-11
4.13722e-11
3.98376e-11
3.82602e-11
3.66471e-11
3.50053e-11
3.3342e-11
3.16644e-11
2.99795e-11
2.82944e-11
2.66158e-11
2.49488e-11
2.32996e-11
2.16747e-11
2.00798e-11
1.85222e-11
1.70067e-11
1.55368e-11
1.41174e-11
1.27524e-11
1.14444e-11
1.01976e-11
9.01569e-12
7.90233e-12
6.86077e-12
5.89355e-12
5.00286e-12
4.19086e-12
3.45972e-12
2.81121e-12
2.2468e-12
1.76752e-12
1.37383e-12
1.06666e-12
7.98331e-13
5.72186e-13
3.89816e-13
2.50306e-13
1.50004e-13
8.28652e-14
4.13422e-14
1.78112e-14
5.82179e-15
8.74821e-16
3.43298e-17
5.85139e-11
5.83898e-11
5.81429e-11
5.77745e-11
5.72867e-11
5.66819e-11
5.59632e-11
5.51343e-11
5.41992e-11
5.31625e-11
5.20293e-11
5.0805e-11
4.94955e-11
4.81072e-11
4.66464e-11
4.51197e-11
4.35346e-11
4.18974e-11
4.02156e-11
3.84968e-11
3.67486e-11
3.49789e-11
3.31953e-11
3.14054e-11
2.96166e-11
2.78364e-11
2.607e-11
2.43242e-11
2.26055e-11
2.09204e-11
1.92765e-11
1.76789e-11
1.61312e-11
1.46386e-11
1.32035e-11
1.18303e-11
1.05232e-11
9.28622e-12
8.12291e-12
7.03672e-12
6.03035e-12
5.10503e-12
4.26373e-12
3.50871e-12
2.84183e-12
2.26477e-12
1.77869e-12
1.38289e-12
1.06892e-12
7.93777e-13
5.63285e-13
3.793e-13
2.40308e-13
1.41799e-13
7.69532e-14
3.76788e-14
1.60102e-14
5.29548e-15
8.78475e-16
3.74478e-17
6.18122e-11
6.16791e-11
6.14144e-11
6.10196e-11
6.04968e-11
5.98488e-11
5.90791e-11
5.81916e-11
5.71907e-11
5.60814e-11
5.48692e-11
5.35601e-11
5.21606e-11
5.06774e-11
4.91167e-11
4.74864e-11
4.57945e-11
4.40492e-11
4.22572e-11
4.0427e-11
3.85669e-11
3.66851e-11
3.47899e-11
3.28895e-11
3.09919e-11
2.9105e-11
2.72343e-11
2.5387e-11
2.35702e-11
2.17905e-11
2.00563e-11
1.83728e-11
1.67436e-11
1.51738e-11
1.36659e-11
1.2225e-11
1.08554e-11
9.56114e-12
8.34602e-12
7.21351e-12
6.16643e-12
5.20578e-12
4.33466e-12
3.55545e-12
2.87023e-12
2.2813e-12
1.79216e-12
1.40925e-12
1.07415e-12
7.88263e-13
5.52775e-13
3.67306e-13
2.29088e-13
1.32718e-13
7.05544e-14
3.38245e-14
1.41326e-14
4.67975e-15
8.32152e-16
3.89372e-17
6.52807e-11
6.51381e-11
6.48543e-11
6.44312e-11
6.38712e-11
6.31772e-11
6.23531e-11
6.14031e-11
6.03321e-11
5.91455e-11
5.78493e-11
5.64499e-11
5.49543e-11
5.33698e-11
5.17031e-11
4.99628e-11
4.81577e-11
4.62969e-11
4.43879e-11
4.24395e-11
4.04608e-11
3.84604e-11
3.64473e-11
3.44303e-11
3.24177e-11
3.04182e-11
2.84376e-11
2.64835e-11
2.45636e-11
2.26847e-11
2.08559e-11
1.90828e-11
1.73691e-11
1.57176e-11
1.41336e-11
1.26221e-11
1.11876e-11
9.83418e-12
8.56574e-12
7.38573e-12
6.29704e-12
5.30047e-12
4.3992e-12
3.59568e-12
2.89172e-12
2.28925e-12
1.79117e-12
1.40365e-12
1.06374e-12
7.74309e-13
5.37356e-13
3.52575e-13
2.1665e-13
1.23334e-13
6.41947e-14
3.00185e-14
1.22379e-14
4.02631e-15
7.67387e-16
3.95968e-17
6.89346e-11
6.87816e-11
6.84775e-11
6.80241e-11
6.74241e-11
6.66808e-11
6.57984e-11
6.47815e-11
6.36354e-11
6.23661e-11
6.09801e-11
5.94844e-11
5.78864e-11
5.61926e-11
5.4412e-11
5.25539e-11
5.06276e-11
4.86429e-11
4.66096e-11
4.45356e-11
4.24306e-11
4.03042e-11
3.81659e-11
3.6025e-11
3.38906e-11
3.17717e-11
2.96747e-11
2.76078e-11
2.55789e-11
2.35957e-11
2.16675e-11
1.98e-11
1.79964e-11
1.62601e-11
1.45969e-11
1.30121e-11
1.15104e-11
1.00961e-11
8.77309e-12
7.54483e-12
6.41392e-12
5.38133e-12
4.45046e-12
3.6239e-12
2.90326e-12
2.28994e-12
1.78537e-12
1.39312e-12
1.0482e-12
7.5535e-13
5.17429e-13
3.34125e-13
2.01495e-13
1.12207e-13
5.69038e-14
2.58304e-14
1.02213e-14
3.30704e-15
6.6154e-16
3.80712e-17
7.27903e-11
7.26262e-11
7.23001e-11
7.18141e-11
7.1171e-11
7.03747e-11
6.94295e-11
6.83406e-11
6.71138e-11
6.57555e-11
6.42729e-11
6.26738e-11
6.09642e-11
5.91531e-11
5.72503e-11
5.52657e-11
5.32096e-11
5.10926e-11
4.89254e-11
4.67168e-11
4.44768e-11
4.22158e-11
3.99438e-11
3.76708e-11
3.54065e-11
3.31607e-11
3.09398e-11
2.87528e-11
2.66085e-11
2.45158e-11
2.24836e-11
2.05172e-11
1.86178e-11
1.6792e-11
1.50459e-11
1.33849e-11
1.18138e-11
1.03369e-11
8.95843e-12
7.68214e-12
6.50818e-12
5.43984e-12
4.48057e-12
3.63308e-12
2.89915e-12
2.28013e-12
1.77572e-12
1.37609e-12
1.024e-12
7.27717e-13
4.9041e-13
3.10853e-13
1.83506e-13
9.96583e-14
4.90587e-14
2.14995e-14
8.18295e-15
2.57526e-15
5.35487e-16
3.50279e-17
7.68656e-11
7.66894e-11
7.63395e-11
7.58181e-11
7.51286e-11
7.42749e-11
7.32619e-11
7.20953e-11
7.07812e-11
6.93267e-11
6.77394e-11
6.60274e-11
6.41975e-11
6.22598e-11
6.02252e-11
5.81043e-11
5.59084e-11
5.36487e-11
5.13368e-11
4.89839e-11
4.65993e-11
4.41939e-11
4.17787e-11
3.93642e-11
3.6961e-11
3.45793e-11
3.2226e-11
2.99103e-11
2.76452e-11
2.54387e-11
2.32948e-11
2.12207e-11
1.92204e-11
1.73009e-11
1.54683e-11
1.37282e-11
1.20854e-11
1.05444e-11
9.1092e-12
7.78371e-12
6.56795e-12
5.46548e-12
4.48006e-12
3.61484e-12
2.87224e-12
2.25561e-12
1.77313e-12
1.34857e-12
9.85555e-13
6.8688e-13
4.52803e-13
2.7974e-13
1.6024e-13
8.39944e-14
3.96448e-14
1.65078e-14
5.90026e-15
1.74015e-15
3.57869e-16
2.67285e-17
8.11791e-11
8.09898e-11
8.06141e-11
8.00545e-11
7.93145e-11
7.83986e-11
7.73123e-11
7.60614e-11
7.4653e-11
7.30946e-11
7.13943e-11
6.95584e-11
6.75974e-11
6.55224e-11
6.33448e-11
6.10765e-11
5.87295e-11
5.63161e-11
5.38486e-11
5.13394e-11
4.87985e-11
4.62375e-11
4.36681e-11
4.11017e-11
3.85493e-11
3.6022e-11
3.35271e-11
3.10748e-11
2.86793e-11
2.63487e-11
2.40869e-11
2.18988e-11
1.97924e-11
1.77747e-11
1.5852e-11
1.40299e-11
1.23134e-11
1.0707e-11
9.21477e-12
7.84008e-12
6.58347e-12
5.44886e-12
4.44034e-12
3.56132e-12
2.81432e-12
2.20063e-12
1.71406e-12
1.2853e-12
9.22214e-13
6.28385e-13
4.03008e-13
2.40771e-13
1.32481e-13
6.61951e-14
2.94975e-14
1.14309e-14
3.72731e-15
9.86101e-16
1.86602e-16
1.50778e-17
8.57883e-11
8.55846e-11
8.51804e-11
8.45785e-11
8.3783e-11
8.27987e-11
8.16315e-11
8.0288e-11
7.87759e-11
7.71036e-11
7.52762e-11
7.33043e-11
7.11995e-11
6.89737e-11
6.66394e-11
6.42095e-11
6.1697e-11
5.91152e-11
5.64777e-11
5.37977e-11
5.10862e-11
4.83559e-11
4.56188e-11
4.28872e-11
4.01728e-11
3.74873e-11
3.48389e-11
3.22386e-11
2.97028e-11
2.72388e-11
2.48475e-11
2.25383e-11
2.03194e-11
1.8198e-11
1.61805e-11
1.42728e-11
1.24799e-11
1.08066e-11
9.25723e-12
7.83215e-12
6.53539e-12
5.37098e-12
4.34344e-12
3.4571e-12
2.71678e-12
2.13077e-12
1.62308e-12
1.18831e-12
8.2845e-13
5.44361e-13