/*--------------------------------*- C++ -*----------------------------------*\
| =========                 |                                                 |
| \\      /  F ield         | OpenFOAM: The Open Source CFD Toolbox           |
|  \\    /   O peration     | Version:  v1906                                 |
|   \\  /    A nd           | Web:      www.OpenFOAM.com                      |
|    \\/     M anipulation  |                                                 |
\*---------------------------------------------------------------------------*/
FoamFile
{
    version     2.0;
    format      ascii;
    class       volScalarField;
    location    "2.83";
    object      CH4;
}
// * * * * * * * * * * * * * * * * * * * * * * * * * * * * * * * * * * * * * //

dimensions      [0 0 0 0 0 0 0];


internalField   nonuniform List<scalar> 
26400
(
2.06288e-07
2.0602e-07
2.05485e-07
2.04685e-07
2.03621e-07
2.02295e-07
2.00712e-07
1.98873e-07
1.96784e-07
1.94449e-07
1.91874e-07
1.89064e-07
1.86025e-07
1.82766e-07
1.79292e-07
1.75613e-07
1.71737e-07
1.67672e-07
1.63428e-07
1.59015e-07
1.54444e-07
1.49724e-07
1.44867e-07
1.39884e-07
1.34787e-07
1.29588e-07
1.24299e-07
1.18933e-07
1.13502e-07
1.0802e-07
1.02509e-07
9.69829e-08
9.14464e-08
8.5913e-08
8.03965e-08
7.49112e-08
6.94716e-08
6.40926e-08
5.87894e-08
5.35773e-08
4.84732e-08
4.34945e-08
3.86595e-08
3.39883e-08
2.9503e-08
2.52289e-08
2.11955e-08
1.74388e-08
1.40041e-08
1.09502e-08
8.35419e-09
6.31223e-09
4.61314e-09
3.28394e-09
2.19534e-09
7.23883e-10
1.69975e-10
2.44684e-11
1.51917e-12
3.63124e-14
2.16148e-07
2.15867e-07
2.15306e-07
2.14467e-07
2.13352e-07
2.11963e-07
2.10303e-07
2.08377e-07
2.06188e-07
2.03741e-07
2.01043e-07
1.98099e-07
1.94917e-07
1.91503e-07
1.87865e-07
1.84012e-07
1.79954e-07
1.75699e-07
1.71257e-07
1.66639e-07
1.61855e-07
1.56917e-07
1.51837e-07
1.46626e-07
1.41297e-07
1.35862e-07
1.30334e-07
1.24726e-07
1.19052e-07
1.13326e-07
1.07571e-07
1.018e-07
9.60187e-08
9.02422e-08
8.44843e-08
7.87599e-08
7.30837e-08
6.74713e-08
6.19385e-08
5.65003e-08
5.11746e-08
4.5979e-08
4.09324e-08
3.60551e-08
3.13695e-08
2.69008e-08
2.26791e-08
1.87411e-08
1.51352e-08
1.193e-08
9.23241e-09
6.89628e-09
4.97075e-09
3.46873e-09
2.26559e-09
7.4475e-10
1.7271e-10
2.44819e-11
1.51474e-12
3.64447e-14
2.28605e-07
2.28307e-07
2.27711e-07
2.2682e-07
2.25635e-07
2.2416e-07
2.22397e-07
2.20351e-07
2.18027e-07
2.1543e-07
2.12566e-07
2.09442e-07
2.06065e-07
2.02443e-07
1.98585e-07
1.945e-07
1.90198e-07
1.85688e-07
1.80982e-07
1.7609e-07
1.71025e-07
1.65799e-07
1.60423e-07
1.54911e-07
1.49276e-07
1.43531e-07
1.3769e-07
1.31768e-07
1.25778e-07
1.19735e-07
1.13664e-07
1.07577e-07
1.01483e-07
9.53953e-08
8.93296e-08
8.33014e-08
7.7326e-08
7.14197e-08
6.55992e-08
5.98794e-08
5.42787e-08
4.88158e-08
4.35101e-08
3.83822e-08
3.34545e-08
2.87525e-08
2.43055e-08
2.01496e-08
1.63307e-08
1.29132e-08
9.99725e-09
7.44601e-09
5.32011e-09
3.6471e-09
2.32433e-09
7.58435e-10
1.734e-10
2.4186e-11
1.48393e-12
3.57008e-14
2.42227e-07
2.41909e-07
2.41274e-07
2.40323e-07
2.3906e-07
2.37487e-07
2.35608e-07
2.33428e-07
2.30951e-07
2.28183e-07
2.25132e-07
2.21805e-07
2.18209e-07
2.14354e-07
2.10248e-07
2.05901e-07
2.01325e-07
1.9653e-07
1.91528e-07
1.86331e-07
1.80952e-07
1.75403e-07
1.69699e-07
1.63852e-07
1.57878e-07
1.5179e-07
1.45604e-07
1.39334e-07
1.32995e-07
1.26605e-07
1.20187e-07
1.13756e-07
1.0732e-07
1.00894e-07
9.44946e-08
8.81379e-08
8.18396e-08
7.5617e-08
6.94876e-08
6.34667e-08
5.7573e-08
5.1826e-08
4.62459e-08
4.08537e-08
3.56724e-08
3.07275e-08
2.60487e-08
2.16712e-08
1.7639e-08
1.40085e-08
1.08529e-08
8.06388e-09
5.71138e-09
3.8341e-09
2.35722e-09
7.58468e-10
1.70274e-10
2.31821e-11
1.40471e-12
3.39454e-14
2.56763e-07
2.56423e-07
2.55745e-07
2.54731e-07
2.53382e-07
2.51702e-07
2.49697e-07
2.47369e-07
2.44726e-07
2.41773e-07
2.38519e-07
2.3497e-07
2.31136e-07
2.27027e-07
2.22652e-07
2.18022e-07
2.13149e-07
2.08045e-07
2.02723e-07
1.97196e-07
1.91477e-07
1.8558e-07
1.79521e-07
1.73314e-07
1.66974e-07
1.60518e-07
1.5396e-07
1.47317e-07
1.40606e-07
1.33843e-07
1.27056e-07
1.20258e-07
1.13458e-07
1.06672e-07
9.99174e-08
9.32122e-08
8.6572e-08
8.00148e-08
7.35589e-08
6.722e-08
6.10173e-08
5.49708e-08
4.91016e-08
4.34315e-08
3.79838e-08
3.27848e-08
2.78651e-08
2.32619e-08
1.90237e-08
1.52216e-08
1.17672e-08
8.71348e-09
6.11335e-09
3.99398e-09
2.28922e-09
7.25543e-10
1.61332e-10
2.16934e-11
1.30555e-12
3.17167e-14
2.72208e-07
2.71845e-07
2.71121e-07
2.70036e-07
2.68595e-07
2.668e-07
2.64657e-07
2.62171e-07
2.59348e-07
2.56195e-07
2.5272e-07
2.48932e-07
2.44842e-07
2.40458e-07
2.35792e-07
2.30857e-07
2.25665e-07
2.20228e-07
2.14561e-07
2.08678e-07
2.02594e-07
1.96324e-07
1.89884e-07
1.83291e-07
1.7656e-07
1.69709e-07
1.62755e-07
1.55714e-07
1.48606e-07
1.41447e-07
1.34265e-07
1.27077e-07
1.19891e-07
1.12725e-07
1.05596e-07
9.85224e-08
9.15219e-08
8.46126e-08
7.78137e-08
7.11415e-08
6.46157e-08
5.82569e-08
5.20866e-08
4.61274e-08
4.04031e-08
3.49403e-08
2.97693e-08
2.49259e-08
2.04537e-08
1.64049e-08
1.27052e-08
9.40873e-09
6.5584e-09
4.14093e-09
1.90898e-09
6.60806e-10
1.53252e-10
2.07212e-11
1.24496e-12
3.04743e-14
2.88612e-07
2.88223e-07
2.87448e-07
2.86288e-07
2.84747e-07
2.82828e-07
2.80536e-07
2.77878e-07
2.7486e-07
2.71491e-07
2.67779e-07
2.63733e-07
2.59365e-07
2.54686e-07
2.49707e-07
2.44443e-07
2.38906e-07
2.33111e-07
2.27073e-07
2.20808e-07
2.14332e-07
2.07662e-07
2.00814e-07
1.93807e-07
1.86658e-07
1.79385e-07
1.72007e-07
1.64542e-07
1.57009e-07
1.49428e-07
1.41829e-07
1.34226e-07
1.26631e-07
1.19061e-07
1.11536e-07
1.04074e-07
9.66937e-08
8.94141e-08
8.22547e-08
7.52325e-08
6.83677e-08
6.16813e-08
5.51953e-08
4.89333e-08
4.29197e-08
3.71817e-08
3.17518e-08
2.66701e-08
2.19908e-08
1.76508e-08
1.36907e-08
1.01552e-08
7.08427e-09
4.47089e-09
2.09202e-09
7.31019e-10
1.68114e-10
2.20339e-11
1.2999e-12
3.1812e-14
3.06036e-07
3.0562e-07
3.04791e-07
3.0355e-07
3.019e-07
2.99847e-07
2.97395e-07
2.94551e-07
2.91323e-07
2.8772e-07
2.83751e-07
2.79427e-07
2.74759e-07
2.69761e-07
2.64445e-07
2.58825e-07
2.52918e-07
2.46737e-07
2.40301e-07
2.33625e-07
2.26728e-07
2.19628e-07
2.12342e-07
2.04892e-07
1.97294e-07
1.8957e-07
1.81739e-07
1.73821e-07
1.65837e-07
1.57806e-07
1.49761e-07
1.41719e-07
1.33689e-07
1.25692e-07
1.17747e-07
1.09875e-07
1.02095e-07
9.44264e-08
8.6887e-08
7.9497e-08
7.22771e-08
6.52489e-08
5.84342e-08
5.18567e-08
4.55411e-08
3.95142e-08
3.38069e-08
2.84572e-08
2.35156e-08
1.89206e-08
1.47138e-08
1.09412e-08
7.64546e-09
4.82928e-09
2.29965e-09
8.14514e-10
1.8607e-10
2.35342e-11
1.35965e-12
3.32657e-14
3.24554e-07
3.24108e-07
3.2322e-07
3.2189e-07
3.20124e-07
3.17925e-07
3.15301e-07
3.12257e-07
3.08802e-07
3.04947e-07
3.007e-07
2.96075e-07
2.91085e-07
2.85742e-07
2.80062e-07
2.7406e-07
2.67752e-07
2.61157e-07
2.54291e-07
2.47174e-07
2.39825e-07
2.32263e-07
2.24508e-07
2.16582e-07
2.08504e-07
2.00297e-07
1.91982e-07
1.8358e-07
1.75113e-07
1.66603e-07
1.58083e-07
1.49573e-07
1.41082e-07
1.32631e-07
1.24242e-07
1.15937e-07
1.07733e-07
9.96537e-08
9.17158e-08
8.39406e-08
7.63496e-08
6.89642e-08
6.18068e-08
5.4901e-08
4.82722e-08
4.19469e-08
3.59547e-08
3.03298e-08
2.5111e-08
2.02464e-08
1.57797e-08
1.17573e-08
8.22303e-09
5.19136e-09
2.51254e-09
9.04299e-10
2.05534e-10
2.48395e-11
1.38942e-12
3.35576e-14
3.44245e-07
3.43767e-07
3.42814e-07
3.41389e-07
3.39496e-07
3.3714e-07
3.34328e-07
3.31068e-07
3.27369e-07
3.23241e-07
3.18697e-07
3.13748e-07
3.08409e-07
3.02695e-07
2.96622e-07
2.90208e-07
2.8347e-07
2.76428e-07
2.691e-07
2.61508e-07
2.53673e-07
2.45615e-07
2.37356e-07
2.2892e-07
2.20328e-07
2.11603e-07
2.0277e-07
1.9385e-07
1.84868e-07
1.75846e-07
1.66821e-07
1.57812e-07
1.48831e-07
1.39899e-07
1.31039e-07
1.22274e-07
1.13625e-07
1.05111e-07
9.67524e-08
8.85724e-08
8.05921e-08
7.28335e-08
6.53192e-08
5.8073e-08
5.11209e-08
4.4491e-08
3.82157e-08
3.23356e-08
2.68031e-08
2.16486e-08
1.6907e-08
1.26173e-08
8.81779e-09
5.53236e-09
2.72644e-09
1.00241e-09
2.28355e-10
2.6231e-11
1.41485e-12
3.35436e-14
3.65197e-07
3.64685e-07
3.63663e-07
3.62134e-07
3.60103e-07
3.57576e-07
3.54561e-07
3.51067e-07
3.47104e-07
3.42684e-07
3.37817e-07
3.3252e-07
3.26806e-07
3.20693e-07
3.14198e-07
3.0734e-07
3.00139e-07
2.92616e-07
2.84792e-07
2.76689e-07
2.68331e-07
2.5974e-07
2.50941e-07
2.41957e-07
2.32814e-07
2.23536e-07
2.14147e-07
2.04673e-07
1.9514e-07
1.85572e-07
1.76008e-07
1.66467e-07
1.56963e-07
1.47519e-07
1.38159e-07
1.28906e-07
1.19783e-07
1.1081e-07
1.0201e-07
9.34039e-08
8.50149e-08
7.68648e-08
6.89763e-08
6.13728e-08
5.40797e-08
4.71248e-08
4.0539e-08
3.43605e-08
2.85405e-08
2.31075e-08
1.80926e-08
1.35266e-08
9.42728e-09
5.74711e-09
2.94048e-09
1.11479e-09
2.55245e-10
2.75779e-11
1.4129e-12
3.22506e-14
3.87509e-07
3.8696e-07
3.85863e-07
3.84222e-07
3.82042e-07
3.79332e-07
3.76098e-07
3.7235e-07
3.68101e-07
3.63364e-07
3.58152e-07
3.52479e-07
3.46362e-07
3.3982e-07
3.32871e-07
3.25537e-07
3.17839e-07
3.09799e-07
3.01441e-07
2.92791e-07
2.83871e-07
2.74709e-07
2.65329e-07
2.55759e-07
2.46024e-07
2.36152e-07
2.26169e-07
2.16103e-07
2.0598e-07
1.95828e-07
1.85687e-07
1.75578e-07
1.65516e-07
1.55525e-07
1.45631e-07
1.35857e-07
1.26233e-07
1.16775e-07
1.07508e-07
9.84528e-08
8.96336e-08
8.10726e-08
7.27926e-08
6.4817e-08
5.71702e-08
4.98794e-08
4.29742e-08
3.64902e-08
3.03784e-08
2.4665e-08
1.93785e-08
1.45494e-08
1.01997e-08
6.2989e-09
3.28221e-09
1.26901e-09
2.90278e-10
2.92648e-11
1.42359e-12
3.07651e-14
4.11293e-07
4.10703e-07
4.09525e-07
4.07764e-07
4.05425e-07
4.02516e-07
3.99046e-07
3.95026e-07
3.9047e-07
3.8539e-07
3.79803e-07
3.73727e-07
3.67177e-07
3.60174e-07
3.52738e-07
3.44893e-07
3.36661e-07
3.28068e-07
3.19139e-07
3.09901e-07
3.0038e-07
2.90605e-07
2.80603e-07
2.70404e-07
2.60036e-07
2.49527e-07
2.38908e-07
2.28207e-07
2.17453e-07
2.06676e-07
1.95918e-07
1.85202e-07
1.74542e-07
1.63967e-07
1.53503e-07
1.43176e-07
1.33017e-07
1.23043e-07
1.13277e-07
1.03745e-07
9.447e-08
8.54746e-08
7.67823e-08
6.84163e-08
6.04005e-08
5.27608e-08
4.55257e-08
3.87278e-08
3.23175e-08
2.63169e-08
2.07502e-08
1.5644e-08
1.10242e-08
6.90856e-09
3.67462e-09
1.45233e-09
3.31986e-10
3.10348e-11
1.43655e-12
2.90641e-14
4.36669e-07
4.36035e-07
4.34771e-07
4.32881e-07
4.30371e-07
4.2725e-07
4.23528e-07
4.19217e-07
4.14331e-07
4.08885e-07
4.02897e-07
3.96387e-07
3.89374e-07
3.81877e-07
3.7392e-07
3.65528e-07
3.56725e-07
3.47539e-07
3.37999e-07
3.28131e-07
3.17967e-07
3.07535e-07
2.96867e-07
2.85994e-07
2.74948e-07
2.63759e-07
2.52458e-07
2.41078e-07
2.29649e-07
2.18202e-07
2.06783e-07
1.95415e-07
1.84116e-07
1.72914e-07
1.61838e-07
1.5092e-07
1.40189e-07
1.29661e-07
1.19363e-07
1.09321e-07
9.9559e-08
9.01012e-08
8.09712e-08
7.21923e-08
6.37884e-08
5.57842e-08
4.8207e-08
4.10867e-08
3.43725e-08
2.80815e-08
2.22292e-08
1.6826e-08
1.18624e-08
7.58879e-09
4.13509e-09
1.6782e-09
3.84245e-10
3.51668e-11
1.53064e-12
2.86451e-14
4.63768e-07
4.63089e-07
4.61733e-07
4.59706e-07
4.57015e-07
4.5367e-07
4.4968e-07
4.4506e-07
4.39824e-07
4.3399e-07
4.27577e-07
4.20605e-07
4.13096e-07
4.05075e-07
3.96564e-07
3.87589e-07
3.78178e-07
3.68361e-07
3.58168e-07
3.47629e-07
3.36778e-07
3.25646e-07
3.14267e-07
3.02674e-07
2.90901e-07
2.78982e-07
2.66952e-07
2.54843e-07
2.42689e-07
2.30525e-07
2.18396e-07
2.0633e-07
1.94344e-07
1.8247e-07
1.70738e-07
1.59183e-07
1.47834e-07
1.3671e-07
1.25839e-07
1.15248e-07
1.04961e-07
9.50056e-08
8.5405e-08
7.61834e-08
6.73647e-08
5.89734e-08
5.10356e-08
4.35797e-08
3.65556e-08
2.99771e-08
2.38553e-08
1.81956e-08
1.29859e-08
8.45226e-09
4.71798e-09
1.97697e-09
4.58802e-10
4.20406e-11
1.74288e-12
3.06203e-14
4.92734e-07
4.92007e-07
4.90554e-07
4.88383e-07
4.85501e-07
4.81917e-07
4.77645e-07
4.72699e-07
4.67095e-07
4.60852e-07
4.5399e-07
4.46533e-07
4.38504e-07
4.29929e-07
4.20835e-07
4.11247e-07
4.01196e-07
3.90713e-07
3.7983e-07
3.68581e-07
3.57e-07
3.45124e-07
3.32988e-07
3.20629e-07
3.08082e-07
2.95386e-07
2.82575e-07
2.69687e-07
2.56759e-07
2.43825e-07
2.30935e-07
2.18118e-07
2.05393e-07
1.92793e-07
1.80356e-07
1.68115e-07
1.56099e-07
1.4433e-07
1.32837e-07
1.21649e-07
1.10793e-07
1.00295e-07
9.0182e-08
8.04785e-08
7.12092e-08
6.23987e-08
5.40728e-08
4.62594e-08
3.89106e-08
3.20371e-08
2.5645e-08
1.97336e-08
1.42861e-08
9.49486e-09
5.46636e-09
2.39816e-09
5.84131e-10
5.5477e-11
2.3101e-12
3.96957e-14
5.23735e-07
5.22956e-07
5.21403e-07
5.19081e-07
5.15999e-07
5.12168e-07
5.07601e-07
5.02314e-07
4.96325e-07
4.89654e-07
4.82323e-07
4.74357e-07
4.65782e-07
4.56624e-07
4.46916e-07
4.36686e-07
4.25965e-07
4.14785e-07
4.03181e-07
3.9119e-07
3.78849e-07
3.66194e-07
3.53266e-07
3.40101e-07
3.26739e-07
3.1322e-07
2.99582e-07
2.85864e-07
2.72107e-07
2.58348e-07
2.44641e-07
2.31016e-07
2.17494e-07
2.04112e-07
1.90911e-07
1.77924e-07
1.65184e-07
1.52713e-07
1.40541e-07
1.287e-07
1.17218e-07
1.06124e-07
9.54451e-08
8.52085e-08
7.54396e-08
6.61644e-08
5.7409e-08
4.92026e-08
4.15064e-08
3.43247e-08
2.76581e-08
2.15001e-08
1.58277e-08
1.07906e-08
6.46528e-09
3.02837e-09
8.15084e-10
8.50889e-11
3.98081e-12
7.15116e-14
5.56942e-07
5.56112e-07
5.54455e-07
5.51979e-07
5.48693e-07
5.44608e-07
5.3974e-07
5.34104e-07
5.2772e-07
5.20609e-07
5.12797e-07
5.04307e-07
4.95168e-07
4.85411e-07
4.75066e-07
4.64167e-07
4.52749e-07
4.40843e-07
4.28486e-07
4.15718e-07
4.02578e-07
3.89106e-07
3.75346e-07
3.61339e-07
3.47126e-07
3.32749e-07
3.18249e-07
3.03666e-07
2.89043e-07
2.74419e-07
2.59849e-07
2.45366e-07
2.30991e-07
2.16772e-07
2.02744e-07
1.88944e-07
1.75409e-07
1.62162e-07
1.4924e-07
1.36672e-07
1.24492e-07
1.12729e-07
1.01412e-07
9.05698e-08
8.02296e-08
7.04178e-08
6.11597e-08
5.24805e-08
4.4405e-08
3.68807e-08
2.99117e-08
2.34906e-08
1.75915e-08
1.23251e-08
7.73096e-09
3.92352e-09
1.21942e-09
1.53113e-10
1.00251e-11
2.11152e-13
5.92531e-07
5.91648e-07
5.89888e-07
5.87258e-07
5.83767e-07
5.79428e-07
5.74256e-07
5.6827e-07
5.61489e-07
5.53937e-07
5.45639e-07
5.36623e-07
5.26917e-07
5.16554e-07
5.05566e-07
4.93989e-07
4.8186e-07
4.69216e-07
4.56093e-07
4.4253e-07
4.28573e-07
4.14266e-07
3.99652e-07
3.84772e-07
3.69672e-07
3.54396e-07
3.38987e-07
3.2349e-07
3.07948e-07
2.92406e-07
2.76921e-07
2.61528e-07
2.46252e-07
2.31141e-07
2.16233e-07
2.01565e-07
1.87176e-07
1.73088e-07
1.59338e-07
1.4596e-07
1.32988e-07
1.20455e-07
1.08393e-07
9.68327e-08
8.58052e-08
7.534e-08
6.54663e-08
5.62138e-08
4.76136e-08
3.96285e-08
3.22643e-08
2.55161e-08
1.93606e-08
1.38745e-08
9.06071e-09
4.97261e-09
1.85153e-09
3.29643e-10
3.81872e-11
1.06566e-12
6.30667e-07
6.29734e-07
6.27872e-07
6.25089e-07
6.21396e-07
6.16806e-07
6.11336e-07
6.05004e-07
5.97833e-07
5.89846e-07
5.8107e-07
5.71533e-07
5.61267e-07
5.50305e-07
5.38681e-07
5.26433e-07
5.13598e-07
5.00216e-07
4.8633e-07
4.71978e-07
4.57207e-07
4.42061e-07
4.26585e-07
4.10826e-07
3.9483e-07
3.78643e-07
3.62311e-07
3.4588e-07
3.29397e-07
3.12907e-07
2.96471e-07
2.80123e-07
2.639e-07
2.47843e-07
2.31994e-07
2.16391e-07
2.01075e-07
1.86071e-07
1.71418e-07
1.57151e-07
1.43305e-07
1.29913e-07
1.1701e-07
1.04628e-07
9.27994e-08
8.15561e-08
7.09294e-08
6.09513e-08
5.16555e-08
4.30684e-08
3.51666e-08
2.79603e-08
2.1445e-08
1.56764e-08
1.06459e-08
6.36476e-09
2.97858e-09
8.93626e-10
1.85752e-10
7.97368e-12
6.71824e-07
6.70841e-07
6.6888e-07
6.6595e-07
6.62063e-07
6.57232e-07
6.51474e-07
6.4481e-07
6.37262e-07
6.28855e-07
6.19618e-07
6.09579e-07
5.98771e-07
5.8723e-07
5.74991e-07
5.62092e-07
5.48575e-07
5.3448e-07
5.19847e-07
5.04722e-07
4.89152e-07
4.73182e-07
4.56861e-07
4.40237e-07
4.23358e-07
4.06274e-07
3.89032e-07
3.7168e-07
3.54268e-07
3.36841e-07
3.19464e-07
3.02173e-07
2.85007e-07
2.68009e-07
2.51221e-07
2.34683e-07
2.18433e-07
2.02511e-07
1.86942e-07
1.71763e-07
1.5701e-07
1.42715e-07
1.28913e-07
1.15639e-07
1.02927e-07
9.08105e-08
7.93222e-08
6.8496e-08
5.83738e-08
4.90009e-08
4.04143e-08
3.26105e-08
2.56129e-08
1.94199e-08
1.40692e-08
9.56372e-09
5.82695e-09
3.05741e-09
9.63455e-10
5.45924e-11
7.15951e-07
7.14854e-07
7.12664e-07
7.09393e-07
7.05053e-07
6.9966e-07
6.93235e-07
6.85799e-07
6.77379e-07
6.68004e-07
6.57707e-07
6.46521e-07
6.34484e-07
6.21635e-07
6.08018e-07
5.93675e-07
5.78653e-07
5.62997e-07
5.46755e-07
5.29981e-07
5.12728e-07
4.95049e-07
4.77e-07
4.58636e-07
4.40013e-07
4.21188e-07
4.02215e-07
3.83151e-07
3.64051e-07
3.44967e-07
3.25971e-07
3.07112e-07
2.88429e-07
2.69971e-07
2.51786e-07
2.33921e-07
2.1642e-07
1.99314e-07
1.82645e-07
1.66454e-07
1.50778e-07
1.35656e-07
1.21124e-07
1.07216e-07
9.39707e-08
8.14314e-08
6.96551e-08
5.87031e-08
4.86303e-08
3.94811e-08
3.12204e-08
2.38617e-08
1.74092e-08
1.19579e-08
7.52411e-09
4.12301e-09
1.7397e-09
3.99378e-10
3.47426e-11
7.94698e-13
7.6262e-07
7.61391e-07
7.5894e-07
7.55278e-07
7.5042e-07
7.44385e-07
7.37196e-07
7.2888e-07
7.19467e-07
7.08992e-07
6.97491e-07
6.85005e-07
6.71578e-07
6.57257e-07
6.42089e-07
6.26127e-07
6.09419e-07
5.92021e-07
5.73993e-07
5.55395e-07
5.36288e-07
5.16737e-07
4.96804e-07
4.76555e-07
4.56053e-07
4.35364e-07
4.14553e-07
3.93684e-07
3.7282e-07
3.52023e-07
3.3137e-07
3.1092e-07
2.90719e-07
2.70823e-07
2.51288e-07
2.32167e-07
2.13496e-07
1.95327e-07
1.77709e-07
1.6069e-07
1.44314e-07
1.28626e-07
1.1367e-07
9.94873e-08
8.6121e-08
7.36133e-08
6.2007e-08
5.13456e-08
4.16682e-08
3.303e-08
2.5376e-08
1.87015e-08
1.31016e-08
8.58127e-09
5.11278e-09
2.62474e-09
1.02059e-09
2.10888e-10
1.62164e-11
3.36289e-13
8.11973e-07
8.10604e-07
8.07874e-07
8.03796e-07
7.98387e-07
7.91669e-07
7.83668e-07
7.74417e-07
7.63951e-07
7.5231e-07
7.39536e-07
7.25677e-07
7.10785e-07
6.94911e-07
6.78115e-07
6.60445e-07
6.41968e-07
6.22748e-07
6.02854e-07
5.82356e-07
5.61326e-07
5.39835e-07
5.17957e-07
4.95767e-07
4.73338e-07
4.50745e-07
4.28063e-07
4.05365e-07
3.82724e-07
3.60211e-07
3.37909e-07
3.15887e-07
2.94197e-07
2.72904e-07
2.52071e-07
2.31738e-07
2.11966e-07
1.92811e-07
1.74325e-07
1.56561e-07
1.39567e-07
1.23388e-07
1.0807e-07
9.3655e-08
8.01865e-08
6.77083e-08
5.62669e-08
4.58981e-08
3.66468e-08
2.85541e-08
2.15146e-08
1.54951e-08
1.05904e-08
6.75492e-09
3.90436e-09
1.9285e-09
7.13061e-10
1.3732e-10
9.5164e-12
1.72734e-13
8.64064e-07
8.6255e-07
8.59531e-07
8.5502e-07
8.49038e-07
8.41609e-07
8.32764e-07
8.2254e-07
8.10978e-07
7.98123e-07
7.84025e-07
7.68741e-07
7.52327e-07
7.34847e-07
7.16354e-07
6.96919e-07
6.76614e-07
6.55515e-07
6.337e-07
6.11249e-07
5.88243e-07
5.64765e-07
5.40898e-07
5.16727e-07
4.92336e-07
4.67808e-07
4.43229e-07
4.18682e-07
3.94249e-07
3.70011e-07
3.46059e-07
3.22468e-07
2.99303e-07
2.76635e-07
2.54512e-07
2.33004e-07
2.12173e-07
1.92084e-07
1.72793e-07
1.54355e-07
1.36823e-07
1.20242e-07
1.04656e-07
9.01036e-08
7.66209e-08
6.42413e-08
5.29968e-08
4.2902e-08
3.39811e-08
2.62572e-08
1.95952e-08
1.39426e-08
9.39781e-09
5.90385e-09
3.36349e-09
1.6459e-09
6.1265e-10
1.22322e-10
8.51387e-12
1.57537e-13
9.1884e-07
9.17175e-07
9.13854e-07
9.08894e-07
9.02316e-07
8.94149e-07
8.84428e-07
8.73196e-07
8.60499e-07
8.4639e-07
8.30925e-07
8.14166e-07
7.96181e-07
7.77029e-07
7.56784e-07
7.35528e-07
7.13341e-07
6.90309e-07
6.66521e-07
6.42066e-07
6.17035e-07
5.91523e-07
5.65624e-07
5.39431e-07
5.13039e-07
4.86543e-07
4.60037e-07
4.33612e-07
4.07363e-07
3.81379e-07
3.5576e-07
3.30586e-07
3.05929e-07
2.81869e-07
2.58458e-07
2.35772e-07
2.13882e-07
1.92857e-07
1.72758e-07
1.53643e-07
1.35563e-07
1.18565e-07
1.02686e-07
8.79574e-08
7.44048e-08
6.20509e-08
5.09142e-08
4.0994e-08
3.22927e-08
2.48019e-08
1.83678e-08
1.2944e-08
8.64434e-09
5.38783e-09
3.05227e-09
1.49139e-09
5.61882e-10
1.18414e-10
8.50628e-12
1.53877e-13
9.76282e-07
9.7446e-07
9.70827e-07
9.654e-07
9.58203e-07
9.49268e-07
9.38636e-07
9.26356e-07
9.12489e-07
8.97086e-07
8.8021e-07
8.6193e-07
8.42313e-07
8.21438e-07
7.99391e-07
7.76259e-07
7.52136e-07
7.27117e-07
7.013e-07
6.74786e-07
6.47678e-07
6.20081e-07
5.92098e-07
5.63836e-07
5.354e-07
5.06892e-07
4.78417e-07
4.50077e-07
4.21975e-07
3.94209e-07
3.66891e-07
3.40109e-07
3.13943e-07
2.88454e-07
2.63728e-07
2.39844e-07
2.1688e-07
1.94908e-07
1.73997e-07
1.54206e-07
1.3559e-07
1.18191e-07
1.02039e-07
8.715e-08
7.35343e-08
6.12023e-08
5.01458e-08
4.03648e-08
3.1832e-08
2.43943e-08
1.79832e-08
1.26026e-08
8.36872e-09
5.19502e-09
2.94808e-09
1.46258e-09
5.73365e-10
1.3229e-10
1.04003e-11
1.99346e-13
1.03639e-06
1.03441e-06
1.03046e-06
1.02455e-06
1.01671e-06
1.00698e-06
9.95392e-07
9.82022e-07
9.66957e-07
9.50221e-07
9.31884e-07
9.12025e-07
8.90727e-07
8.68078e-07
8.44173e-07
8.19112e-07
7.92995e-07
7.65931e-07
7.38028e-07
7.09397e-07
6.80154e-07
6.50416e-07
6.20297e-07
5.89915e-07
5.59386e-07
5.2882e-07
4.9833e-07
4.68029e-07
4.38029e-07
4.08436e-07
3.7937e-07
3.50927e-07
3.23197e-07
2.96246e-07
2.70168e-07
2.45049e-07
2.20972e-07
1.98015e-07
1.76252e-07
1.5575e-07
1.36569e-07
1.18753e-07
1.02322e-07
8.7249e-08
7.35234e-08
6.11437e-08
5.00984e-08
4.04164e-08
3.22226e-08
2.44794e-08
1.78847e-08
1.24963e-08
8.28639e-09
5.15503e-09
2.95231e-09
1.50127e-09
6.24253e-10
1.68686e-10
1.68532e-11
3.68843e-13
1.09921e-06
1.09706e-06
1.09278e-06
1.08638e-06
1.0779e-06
1.06738e-06
1.05486e-06
1.04041e-06
1.02408e-06
1.00594e-06
9.86086e-07
9.64591e-07
9.41552e-07
9.17066e-07
8.9124e-07
8.64181e-07
8.36003e-07
8.06825e-07
7.76762e-07
7.4594e-07
7.14488e-07
6.82534e-07
6.50207e-07
6.17634e-07
5.84944e-07
5.52253e-07
5.19686e-07
4.87366e-07
4.5541e-07
4.23935e-07
3.93063e-07
3.629e-07
3.33536e-07
3.05068e-07
2.77588e-07
2.51188e-07
2.25949e-07
2.01956e-07
1.79292e-07
1.58037e-07
1.38266e-07
1.2005e-07
1.03443e-07
8.82091e-08
7.43652e-08
6.19e-08
5.07686e-08
4.08785e-08
3.20599e-08
2.39976e-08
1.72993e-08
1.1929e-08
7.80291e-09
4.78876e-09
2.71059e-09
1.36986e-09
5.73206e-10
1.60065e-10
1.67615e-11
4.01483e-13
1.16499e-06
1.16267e-06
1.15804e-06
1.15113e-06
1.14196e-06
1.13059e-06
1.11706e-06
1.10145e-06
1.08381e-06
1.06423e-06
1.0428e-06
1.01961e-06
9.94768e-07
9.6838e-07
9.40563e-07
9.11438e-07
8.81131e-07
8.49761e-07
8.17463e-07
7.84376e-07
7.50639e-07
7.16396e-07
6.81787e-07
6.46953e-07
6.12031e-07
5.77151e-07
5.42444e-07
5.08043e-07
4.74074e-07
4.40662e-07
4.07938e-07
3.76011e-07
3.4498e-07
3.14949e-07
2.86013e-07
2.58268e-07
2.318e-07
2.06699e-07
1.83052e-07
1.6095e-07
1.40481e-07
1.21747e-07
1.04514e-07
8.87859e-08
7.45524e-08
6.17818e-08
5.04089e-08
4.03204e-08
3.134e-08
2.32341e-08
1.65911e-08
1.13277e-08
7.33121e-09
4.44724e-09
2.48681e-09
1.24398e-09
5.20568e-10
1.50932e-10
1.67539e-11
4.23766e-13
1.23376e-06
1.23125e-06
1.22626e-06
1.2188e-06
1.20892e-06
1.19666e-06
1.18208e-06
1.16525e-06
1.14625e-06
1.12517e-06
1.1021e-06
1.07715e-06
1.05043e-06
1.02206e-06
9.92178e-07
9.60907e-07
9.28385e-07
8.94742e-07
8.60127e-07
8.24692e-07
7.88589e-07
7.51974e-07
7.15001e-07
6.77823e-07
6.40589e-07
6.03445e-07
5.66526e-07
5.29972e-07
4.93919e-07
4.58501e-07
4.23856e-07
3.90101e-07
3.5734e-07
3.25682e-07
2.95231e-07
2.66077e-07
2.38315e-07
2.12039e-07
1.87339e-07
1.64306e-07
1.4303e-07
1.23613e-07
1.0579e-07
8.95637e-08
7.49219e-08
6.18228e-08
5.01793e-08
3.98305e-08
3.04926e-08
2.2544e-08
1.60012e-08
1.08263e-08
6.92411e-09
4.14314e-09
2.28469e-09
1.13052e-09
4.72616e-10
1.39966e-10
1.61658e-11
4.37046e-13
1.30567e-06
1.30297e-06
1.2976e-06
1.28957e-06
1.27894e-06
1.26575e-06
1.25007e-06
1.23197e-06
1.21155e-06
1.18889e-06
1.16411e-06
1.13731e-06
1.10864e-06
1.07821e-06
1.04617e-06
1.01267e-06
9.77829e-07
9.41816e-07
9.04788e-07
8.6691e-07
8.28349e-07
7.89271e-07
7.49843e-07
7.10232e-07
6.70599e-07
6.31104e-07
5.91886e-07
5.53097e-07
5.14882e-07
4.77382e-07
4.40742e-07
4.05087e-07
3.70527e-07
3.37177e-07
3.05145e-07
2.74524e-07
2.45413e-07
2.17909e-07
1.92106e-07
1.68094e-07
1.45961e-07
1.25807e-07
1.0734e-07
9.05674e-08
7.54768e-08
6.20228e-08
5.01107e-08
3.95645e-08
3.00703e-08
2.20526e-08
1.55095e-08
1.03853e-08
6.56457e-09
3.87587e-09
2.10621e-09
1.02789e-09
4.27216e-10
1.29816e-10
1.6239e-11
4.72152e-13
1.38093e-06
1.37804e-06
1.37226e-06
1.36363e-06
1.35221e-06
1.33804e-06
1.3212e-06
1.30177e-06
1.27985e-06
1.25554e-06
1.22896e-06
1.20024e-06
1.16951e-06
1.13692e-06
1.10262e-06
1.06675e-06
1.0295e-06
9.91017e-07
9.51469e-07
9.1104e-07
8.69912e-07
8.28264e-07
7.86277e-07
7.4413e-07
7.01997e-07
6.60051e-07
6.18439e-07
5.77322e-07
5.36856e-07
4.97188e-07
4.58472e-07
4.2084e-07
3.84406e-07
3.49292e-07
3.1561e-07
2.83457e-07
2.52938e-07
2.24155e-07
1.97206e-07
1.72184e-07
1.4917e-07
1.28222e-07
1.09057e-07
9.16957e-08
7.6124e-08
6.22905e-08
5.009e-08
3.93345e-08
2.96926e-08
2.16096e-08
1.50621e-08
9.97577e-09
6.22157e-09
3.61558e-09
1.932e-09
9.28638e-10
3.8271e-10
1.17837e-10
1.60236e-11
5.06912e-13
1.45981e-06
1.45669e-06
1.45049e-06
1.44123e-06
1.42897e-06
1.41377e-06
1.3957e-06
1.37487e-06
1.35137e-06
1.32532e-06
1.29685e-06
1.26609e-06
1.2332e-06
1.19833e-06
1.16164e-06
1.12331e-06
1.08351e-06
1.04241e-06
1.00021e-06
9.57107e-07
9.13287e-07
8.68947e-07
8.24281e-07
7.7948e-07
7.34732e-07
6.90224e-07
6.46111e-07
6.02565e-07
5.59749e-07
5.17821e-07
4.76942e-07
4.37249e-07
3.98866e-07
3.61919e-07
3.26513e-07
2.92761e-07
2.60776e-07
2.30663e-07
2.0253e-07
1.7649e-07
1.52663e-07
1.30782e-07
1.1085e-07
9.28599e-08
7.67793e-08
6.25402e-08
5.0019e-08
3.90167e-08
2.9247e-08
2.11225e-08
1.4591e-08
9.5621e-09
5.88985e-09
3.37284e-09
1.77155e-09
8.36027e-10
3.40007e-10
1.06135e-10
1.60052e-11
5.51785e-13
1.54257e-06
1.53923e-06
1.53257e-06
1.52264e-06
1.50949e-06
1.49319e-06
1.47383e-06
1.4515e-06
1.42633e-06
1.39844e-06
1.36796e-06
1.33505e-06
1.29987e-06
1.26259e-06
1.22337e-06
1.1824e-06
1.13989e-06
1.09605e-06
1.05105e-06
1.00512e-06
9.58467e-07
9.11293e-07
8.6381e-07
8.16222e-07
7.68731e-07
7.21534e-07
6.74799e-07
6.28707e-07
5.83432e-07
5.39139e-07
4.95999e-07
4.54154e-07
4.13734e-07
3.74869e-07
3.37669e-07
3.02256e-07
2.68742e-07
2.37238e-07
2.07855e-07
1.80706e-07
1.55917e-07
1.33187e-07
1.12525e-07
9.39221e-08
7.73422e-08
6.27007e-08
4.98387e-08
3.84709e-08
2.87127e-08
2.05956e-08
1.4097e-08
9.12985e-09
5.54084e-09
3.11686e-09
1.60421e-09
7.41446e-10
2.9663e-10
9.28064e-11
1.505e-11
5.69167e-13
1.62955e-06
1.62597e-06
1.61883e-06
1.60818e-06
1.59407e-06
1.5766e-06
1.55586e-06
1.53194e-06
1.50499e-06
1.47513e-06
1.44251e-06
1.40731e-06
1.36969e-06
1.32984e-06
1.28792e-06
1.24416e-06
1.19877e-06
1.152e-06
1.10403e-06
1.05511e-06
1.00545e-06
9.5528e-07
9.04821e-07
8.54293e-07
8.0391e-07
7.53881e-07
7.04387e-07
6.55621e-07
6.07764e-07
5.60993e-07
5.15486e-07
4.71393e-07
4.28851e-07
3.87981e-07
3.48915e-07
3.11777e-07
2.76685e-07
2.43751e-07
2.13086e-07
1.84803e-07
1.59024e-07
1.35424e-07
1.14018e-07
9.48002e-08
7.77303e-08
6.27164e-08
4.9584e-08
3.80135e-08
2.81454e-08
1.99992e-08
1.35386e-08
8.65726e-09
5.17746e-09
2.86284e-09
1.44303e-09
6.50593e-10
2.53967e-10
7.90189e-11
1.37908e-11
5.75407e-13
1.7211e-06
1.71726e-06
1.7096e-06
1.69818e-06
1.68306e-06
1.66433e-06
1.6421e-06
1.61648e-06
1.58761e-06
1.55565e-06
1.52075e-06
1.48309e-06
1.44287e-06
1.40024e-06
1.35543e-06
1.30868e-06
1.26022e-06
1.2103e-06
1.15918e-06
1.10707e-06
1.05422e-06
1.00087e-06
9.47254e-07
8.93609e-07
8.40163e-07
7.87139e-07
7.34732e-07
6.83143e-07
6.32567e-07
5.8319e-07
5.35197e-07
4.88745e-07
4.43976e-07
4.01019e-07
3.60014e-07
3.21091e-07
2.84372e-07
2.49976e-07
2.18018e-07
1.88603e-07
1.61803e-07
1.37308e-07
1.15149e-07
9.53225e-08
7.77806e-08
6.24208e-08
4.90502e-08
3.73148e-08
2.73789e-08
1.92459e-08
1.28601e-08
8.0959e-09
4.75397e-09
2.57255e-09
1.26377e-09
5.53131e-10
2.09575e-10
6.41564e-11
1.1792e-11
5.47118e-13
1.81762e-06
1.81349e-06
1.80527e-06
1.79302e-06
1.7768e-06
1.75672e-06
1.73289e-06
1.70544e-06
1.67451e-06
1.64028e-06
1.60292e-06
1.56264e-06
1.51958e-06
1.47396e-06
1.42604e-06
1.37607e-06
1.32432e-06
1.27105e-06
1.21654e-06
1.16102e-06
1.10476e-06
1.04801e-06
9.91036e-07
9.34075e-07
8.77374e-07
8.21169e-07
7.6567e-07
7.11092e-07
6.57642e-07
6.05519e-07
5.5491e-07
5.05984e-07
4.58873e-07
4.13733e-07
3.70709e-07
3.29935e-07
2.91542e-07
2.55657e-07
2.22416e-07
1.91976e-07
1.6404e-07
1.38618e-07
1.15712e-07
9.5301e-08
7.73211e-08
6.16503e-08
4.80712e-08
3.62241e-08
2.62858e-08
1.82385e-08
1.20029e-08
7.42575e-09
4.27279e-09
2.25666e-09
1.07664e-09
4.55013e-10
1.65809e-10
4.93986e-11
9.47599e-12
4.99369e-13
1.91951e-06
1.91507e-06
1.90625e-06
1.89309e-06
1.87569e-06
1.85415e-06
1.82858e-06
1.79915e-06
1.766e-06
1.72932e-06
1.68929e-06
1.64614e-06
1.60001e-06
1.55117e-06
1.49989e-06
1.44647e-06
1.39117e-06
1.33429e-06
1.27612e-06
1.21695e-06
1.15704e-06
1.09666e-06
1.03608e-06
9.75578e-07
9.15401e-07
8.55806e-07
7.97014e-07
7.39256e-07
6.82764e-07
6.27738e-07
5.7436e-07
5.2281e-07
4.73242e-07
4.2582e-07
3.80694e-07
3.38003e-07
2.97882e-07
2.60459e-07
2.25869e-07
1.94266e-07
1.65317e-07
1.39046e-07
1.15457e-07
9.4525e-08
7.61733e-08
6.02483e-08
4.64642e-08
3.46299e-08
2.47864e-08
1.69101e-08
1.09044e-08
6.58264e-09
3.67816e-09
1.87592e-09
8.58258e-10
3.44527e-10
1.17785e-10
3.28459e-11
6.23947e-12
3.69628e-13
2.02721e-06
2.02244e-06
2.01296e-06
1.99882e-06
1.98013e-06
1.957e-06
1.92957e-06
1.89799e-06
1.86243e-06
1.8231e-06
1.78021e-06
1.73389e-06
1.68441e-06
1.63207e-06
1.57717e-06
1.51999e-06
1.46087e-06
1.4001e-06
1.338e-06
1.27488e-06
1.21104e-06
1.14675e-06
1.08231e-06
1.018e-06
9.54104e-07
8.90881e-07
8.28573e-07
7.67425e-07
7.07685e-07
6.49565e-07
5.93256e-07
5.38935e-07
4.86785e-07
4.36976e-07
3.89664e-07
3.44996e-07
3.03111e-07
2.64144e-07
2.28219e-07
1.95438e-07
1.65485e-07
1.38398e-07
1.14182e-07
9.28038e-08
7.41719e-08
5.81038e-08
4.42445e-08
3.24733e-08
2.28138e-08
1.5219e-08
9.55052e-09
5.57711e-09
2.99436e-09
1.45605e-09
6.28978e-10
2.34935e-10
7.32411e-11
1.8308e-11
3.18815e-12
1.99865e-13
2.14212e-06
2.13699e-06
2.12678e-06
2.11156e-06
2.09145e-06
2.06657e-06
2.03708e-06
2.00313e-06
1.96494e-06
1.92271e-06
1.87656e-06
1.82677e-06
1.77363e-06
1.71745e-06
1.65856e-06
1.59729e-06
1.53397e-06
1.46895e-06
1.40256e-06
1.33515e-06
1.26701e-06
1.19848e-06
1.12985e-06
1.06142e-06
9.93492e-07
9.26343e-07
8.60237e-07
7.95434e-07
7.32199e-07
6.70758e-07
6.11298e-07
5.54028e-07
4.99141e-07
4.46812e-07
3.97206e-07
3.5048e-07
3.06786e-07
2.66276e-07
2.29119e-07
1.95041e-07
1.64065e-07
1.36196e-07
1.11422e-07
8.96919e-08
7.08912e-08
5.48086e-08
4.09769e-08
2.9406e-08
2.00816e-08
1.29174e-08
7.72988e-09
4.24087e-09
2.09481e-09