/*--------------------------------*- C++ -*----------------------------------*\
| =========                 |                                                 |
| \\      /  F ield         | OpenFOAM: The Open Source CFD Toolbox           |
|  \\    /   O peration     | Version:  v1906                                 |
|   \\  /    A nd           | Web:      www.OpenFOAM.com                      |
|    \\/     M anipulation  |                                                 |
\*---------------------------------------------------------------------------*/
FoamFile
{
    version     2.0;
    format      ascii;
    class       volScalarField;
    location    "2.83";
    object      CO;
}
// * * * * * * * * * * * * * * * * * * * * * * * * * * * * * * * * * * * * * //

dimensions      [0 0 0 0 0 0 0];


internalField   nonuniform List<scalar> 
26400
(
0.0402281
0.0401903
0.0401147
0.0400014
0.0398506
0.0396626
0.0394374
0.0391755
0.0388771
0.0385428
0.0381729
0.0377679
0.0373285
0.0368551
0.0363485
0.0358093
0.0352383
0.0346364
0.0340043
0.0333431
0.0326537
0.0319372
0.0311948
0.0304277
0.0296373
0.0288249
0.0279922
0.0271408
0.0262729
0.0253903
0.0244967
0.0235903
0.0226716
0.0217423
0.0208042
0.0198592
0.0189073
0.0179499
0.0169891
0.0160258
0.0150598
0.0140906
0.0131176
0.0121401
0.0111571
0.0101678
0.00917134
0.00816723
0.00715616
0.00614125
0.00513058
0.00414113
0.00314263
0.00218979
0.00141375
0.00116876
0.000813963
0.000427609
7.76382e-05
1.81974e-06
0.0406495
0.0406108
0.0405333
0.0404173
0.0402629
0.0400703
0.0398398
0.0395717
0.0392663
0.0389242
0.0385458
0.0381316
0.0376822
0.0371983
0.0366805
0.0361297
0.0355465
0.0349319
0.0342868
0.0336122
0.032909
0.0321786
0.031422
0.0306406
0.0298357
0.0290089
0.0281618
0.0272962
0.0264141
0.0255178
0.0246104
0.0236904
0.0227586
0.0218168
0.0208667
0.0199107
0.0189484
0.0179817
0.0170126
0.0160419
0.0150695
0.0140949
0.0131179
0.0121377
0.0111538
0.0101656
0.00917234
0.0081742
0.00717265
0.00617274
0.00518779
0.00418491
0.0031802
0.00222086
0.001434
0.00118289
0.000811803
0.000410819
5.81644e-05
1.36713e-06
0.0411723
0.0411324
0.0410525
0.0409329
0.0407737
0.0405752
0.0403376
0.0400614
0.0397468
0.0393946
0.039005
0.0385788
0.0381166
0.037619
0.0370868
0.0365209
0.0359221
0.0352913
0.0346295
0.0339377
0.0332171
0.0324689
0.0316944
0.0308949
0.030072
0.0292271
0.0283621
0.0274787
0.0265792
0.0256658
0.0247415
0.0238049
0.0228571
0.0219
0.0209356
0.0199661
0.0189914
0.0180134
0.0170343
0.0160547
0.0150745
0.0140935
0.0131114
0.0121278
0.0111424
0.0101544
0.0091637
0.00817022
0.00717536
0.00618352
0.00520682
0.00421166
0.0032141
0.00225895
0.00146939
0.00121064
0.000815649
0.000395314
3.9359e-05
9.24146e-07
0.0417297
0.0416884
0.0416059
0.0414822
0.0413176
0.0411124
0.0408669
0.0405816
0.0402569
0.0398933
0.0394914
0.0390519
0.0385754
0.0380628
0.0375148
0.0369323
0.0363163
0.0356677
0.0349876
0.0342772
0.0335376
0.0327702
0.0319762
0.0311572
0.0303147
0.0294503
0.0285659
0.0276636
0.0267453
0.0258136
0.0248713
0.0239171
0.0229525
0.0219794
0.0209998
0.0200163
0.0190287
0.018039
0.0170495
0.0160607
0.0150726
0.0140851
0.0130981
0.0121114
0.0111247
0.0101379
0.0091509
0.00816407
0.00717883
0.0061987
0.00523091
0.00424689
0.00326429
0.00232623
0.00154564
0.00126206
0.000827148
0.000381165
2.4328e-05
5.86373e-07
0.0423088
0.042266
0.0421804
0.0420523
0.0418818
0.0416694
0.0414153
0.0411201
0.0407843
0.0404085
0.0399934
0.0395396
0.0390479
0.0385192
0.0379543
0.0373543
0.03672
0.0360526
0.0353533
0.0346231
0.0338635
0.0330758
0.0322613
0.0314218
0.0305587
0.029674
0.0287694
0.0278471
0.0269094
0.0259586
0.0249976
0.0240252
0.0230431
0.0220535
0.0210584
0.0200604
0.0190595
0.0180578
0.0170578
0.0160596
0.0150633
0.0140692
0.0130771
0.0120871
0.0110993
0.0101137
0.00913078
0.00815177
0.00717964
0.00622165
0.00525268
0.00427887
0.00331897
0.00242047
0.00169216
0.00134112
0.0008423
0.000366992
2.2025e-05
5.33866e-07
0.0429081
0.0428637
0.0427748
0.0426417
0.0424647
0.0422443
0.0419808
0.041675
0.0413272
0.0409383
0.040509
0.04004
0.0395322
0.0389864
0.0384037
0.037785
0.0371316
0.0364444
0.0357247
0.0349739
0.0341932
0.0333842
0.0325484
0.0316874
0.0308029
0.0298969
0.0289712
0.0280282
0.0270701
0.0260995
0.0251192
0.0241279
0.0231279
0.0221212
0.0211101
0.0200973
0.0190827
0.0180687
0.0170579
0.0160501
0.0150456
0.0140448
0.0130477
0.0120545
0.0110656
0.0100812
0.00910217
0.00812971
0.00716633
0.00621633
0.005258
0.00430099
0.00337129
0.00254116
0.00202044
0.00143985
0.000851964
0.000348081
2.05341e-05
4.97356e-07
0.0435295
0.043483
0.0433902
0.0432514
0.043067
0.0428376
0.0425639
0.0422464
0.0418858
0.0414829
0.0410384
0.0405532
0.0400283
0.0394645
0.0388629
0.0382247
0.037551
0.036843
0.0361021
0.0353296
0.034527
0.0336958
0.0328376
0.0319542
0.0310474
0.0301192
0.0291717
0.0282071
0.0272279
0.0262368
0.0252363
0.0242256
0.023207
0.0221828
0.0211553
0.0201273
0.0190989
0.0180724
0.0170504
0.0160329
0.0150201
0.0140124
0.0130103
0.0120139
0.011024
0.0100412
0.00906685
0.00810352
0.0071562
0.00620547
0.00525281
0.00430553
0.00338673
0.00256434
0.00204296
0.0014471
0.000837333
0.000321575
1.85933e-05
4.49784e-07
0.0441761
0.0441272
0.0440294
0.0438828
0.0436896
0.0434501
0.043165
0.0428349
0.0424605
0.0420426
0.041582
0.0410797
0.0405367
0.0399539
0.0393326
0.0386739
0.0379789
0.0372492
0.036486
0.0356908
0.0348652
0.0340109
0.0331294
0.0322227
0.0312927
0.0303414
0.0293711
0.0283841
0.0273829
0.0263705
0.0253493
0.0243184
0.0232807
0.0222383
0.0211939
0.0201503
0.0191078
0.0180688
0.0170351
0.0160074
0.014986
0.0139714
0.0129642
0.0119647
0.0109736
0.00999187
0.00902087
0.00806312
0.00712342
0.00618263
0.00524277
0.00431097
0.00340836
0.00259717
0.00207174
0.00145887
0.000823742
0.000293142
1.65825e-05
4.00854e-07
0.044834
0.0447837
0.0446829
0.044532
0.0443312
0.0440812
0.0437842
0.0434408
0.0430518
0.0426182
0.0421407
0.0416204
0.0410583
0.0404557
0.0398136
0.0391333
0.0384162
0.0376637
0.0368773
0.0360585
0.0352089
0.0343304
0.0334247
0.0324938
0.0315396
0.0305644
0.0295704
0.0285601
0.0275362
0.0265016
0.0254588
0.0244071
0.0233495
0.0222884
0.0212264
0.0201666
0.0191093
0.0180572
0.0170119
0.015974
0.0149441
0.0139227
0.0129104
0.011908
0.0109162
0.00993628
0.00896972
0.00801878
0.0070866
0.0061563
0.00523132
0.0043193
0.00343963
0.00264647
0.00211241
0.00147528
0.000809836
0.000261252
1.42589e-05
3.39625e-07
0.0455079
0.0454559
0.0453519
0.0451961
0.044989
0.044731
0.0444229
0.0440654
0.0436611
0.0432108
0.0427155
0.0421763
0.0415944
0.0409708
0.040307
0.0396043
0.0388641
0.0380878
0.0372772
0.0364338
0.0355594
0.0346557
0.0337249
0.0327687
0.0317895
0.0307894
0.0297709
0.0287365
0.027689
0.0266314
0.0255662
0.0244929
0.0234147
0.0223341
0.0212539
0.0201771
0.0191042
0.0180388
0.0169817
0.0159334
0.0148947
0.0138662
0.0128489
0.0118435
0.0108514
0.00987417
0.00891459
0.00797685
0.00704703
0.00612638
0.00521858
0.00433255
0.00348889
0.00273458
0.00217017
0.00149365
0.000794399
0.000225842
1.18332e-05
2.7607e-07
0.0462002
0.0461465
0.0460388
0.0458777
0.0456635
0.0453969
0.0450784
0.0447091
0.0442899
0.0438219
0.0433079
0.0427489
0.0421462
0.0415009
0.0408145
0.0400884
0.0393241
0.0385232
0.0376874
0.0368185
0.0359183
0.0349886
0.0340317
0.0330495
0.0320443
0.0310185
0.0299746
0.0289152
0.0278433
0.0267619
0.0256735
0.0245778
0.0234782
0.0223776
0.021279
0.0201839
0.0190952
0.0180158
0.0169463
0.0158873
0.0148395
0.0138036
0.0127806
0.0117714
0.0107776
0.00980102
0.00884454
0.00791267
0.00699196
0.0060848
0.00519688
0.0043418
0.00355352
0.00292302
0.00223855
0.00150511
0.000772959
0.000186139
9.18922e-06
2.05622e-07
0.0469132
0.0468575
0.0467461
0.0465793
0.0463576
0.0460816
0.045752
0.0453698
0.0449361
0.0444519
0.0439188
0.0433395
0.0427153
0.0420476
0.0413379
0.0405877
0.0397985
0.0389722
0.0381104
0.0372151
0.0362882
0.0353317
0.0343478
0.0333387
0.0323067
0.0312544
0.0301843
0.0290992
0.028002
0.026896
0.0257834
0.0246641
0.0235419
0.0224194
0.0212995
0.0201834
0.0190815
0.0179893
0.0169079
0.0158381
0.0147808
0.013737
0.0127078
0.0116945
0.0106987
0.0097224
0.00876873
0.0078424
0.00693042
0.00603543
0.00516307
0.00432583
0.00355359
0.00292719
0.00223735
0.00149359
0.000745107
0.000144101
6.69785e-06
1.41371e-07
0.0476486
0.047591
0.0474757
0.0473031
0.0470737
0.0467881
0.0464472
0.0460518
0.0456031
0.0451025
0.0445512
0.0439509
0.0433047
0.0426139
0.0418801
0.041105
0.0402903
0.0394377
0.0385492
0.0376268
0.0366725
0.0356884
0.0346768
0.0336401
0.0325807
0.0315011
0.0304042
0.0292926
0.0281696
0.0270383
0.0259009
0.0247576
0.0236124
0.022468
0.0213279
0.0201935
0.0190748
0.0179675
0.0168723
0.0157903
0.0147224
0.0136698
0.0126336
0.0116154
0.0106169
0.00964035
0.00868916
0.00776832
0.00686563
0.00598456
0.00513167
0.00431966
0.0035733
0.00293984
0.00223778
0.00148235
0.000718768
0.000103525
4.52922e-06
8.91396e-08
0.0484078
0.0483482
0.048229
0.0480505
0.0478134
0.0475181
0.0471657
0.0467571
0.0462934
0.045776
0.0452064
0.0445863
0.0439176
0.0432032
0.0424449
0.0416445
0.0408036
0.0399243
0.0390085
0.0380583
0.037076
0.0360637
0.0350238
0.0339589
0.0328714
0.031764
0.0306396
0.0295011
0.0283515
0.0271943
0.0260314
0.0248631
0.0236936
0.0225259
0.0213627
0.0202112
0.019076
0.017953
0.0168432
0.0157479
0.0146683
0.0136057
0.0125615
0.0115373
0.010535
0.00955713
0.00860731
0.00769082
0.00679654
0.00592938
0.00509894
0.00432549
0.0036549
0.00296144
0.00223473
0.00146978
0.000696
7.41156e-05
3.04266e-06
5.53927e-08
0.0491915
0.0491301
0.049007
0.0488227
0.0485779
0.0482731
0.0479094
0.0474876
0.0470091
0.0464752
0.0458875
0.0452477
0.0445577
0.0438197
0.0430368
0.0422108
0.0413437
0.0404374
0.0394941
0.038516
0.0375054
0.0364646
0.0353962
0.0343026
0.0331866
0.032051
0.0308986
0.0297326
0.0285561
0.0273726
0.0261838
0.0249904
0.0237969
0.0226062
0.0214217
0.02025
0.0190957
0.0179549
0.0168288
0.0157187
0.0146259
0.0135518
0.012498
0.0114661
0.0104584
0.00947742
0.00852689
0.00761211
0.00672252
0.00586297
0.00504253
0.00427997
0.00361751
0.00293219
0.00221417
0.00145613
0.000680676
5.8143e-05
2.28961e-06
3.92069e-08
0.0500012
0.0499378
0.0498109
0.049621
0.0493686
0.0490545
0.0486797
0.0482451
0.0477522
0.0472022
0.0465969
0.045938
0.0452275
0.0444676
0.0436606
0.0428097
0.0419169
0.0409842
0.0400138
0.039008
0.0379693
0.0369001
0.035803
0.0346808
0.0335362
0.0323722
0.0311918
0.0299981
0.0287946
0.0275844
0.0263694
0.0251502
0.0239317
0.0227167
0.021511
0.0203186
0.0191443
0.0179846
0.0168408
0.0157143
0.0146067
0.0135195
0.0124543
0.011413
0.010398
0.00941204
0.00845898
0.0075442
0.00665811
0.00580539
0.00499446
0.0042423
0.00358657
0.00291116
0.00220561
0.00145942
0.00068699
5.99771e-05
2.31228e-06
3.81002e-08
0.0508377
0.0507725
0.050642
0.0504468
0.0501874
0.0498645
0.0494793
0.0490327
0.0485261
0.0479609
0.0473389
0.0466618
0.0459318
0.0451509
0.0443217
0.0434468
0.0425292
0.0415712
0.0405749
0.0395427
0.0384772
0.0373807
0.0362561
0.0351061
0.0339337
0.0327418
0.0315338
0.0303129
0.0290825
0.0278461
0.0266049
0.0253602
0.0241169
0.0228781
0.0216493
0.0204346
0.0192385
0.0180582
0.016895
0.0157505
0.0146262
0.0135238
0.0124451
0.0113921
0.0103672
0.00937351
0.00841495
0.00749731
0.00661323
0.00576635
0.00496415
0.00422172
0.00357171
0.002908
0.00221994
0.00149358
0.000729824
7.32039e-05
3.00168e-06
4.95799e-08
0.0517005
0.0516337
0.0515001
0.0513001
0.0510345
0.0507039
0.0503094
0.0498522
0.0493334
0.0487548
0.0481179
0.0474246
0.046677
0.0458774
0.0450281
0.0441318
0.0431913
0.0422096
0.041189
0.040132
0.0390408
0.0379181
0.0367668
0.0355898
0.0343903
0.0331716
0.031937
0.0306903
0.0294352
0.0281759
0.0269109
0.0256417
0.0243739
0.0231121
0.02186
0.0206218
0.0194021
0.0181991
0.0170143
0.0158495
0.0147061
0.0135858
0.0124907
0.0114226
0.0103841
0.00937788
0.00840764
0.00747808
0.0065959
0.00575196
0.00495422
0.00421669
0.00356794
0.00291467
0.00224795
0.00155084
0.00080816
0.000122438
5.75888e-06
1.02935e-07
0.0525883
0.0525202
0.052384
0.0521802
0.0519095
0.0515726
0.0511706
0.0507046
0.0501759
0.0495862
0.0489371
0.0482304
0.0474684
0.0466531
0.0457872
0.0448731
0.0439137
0.0429121
0.0418711
0.0407932
0.0396804
0.0385356
0.0373617
0.0361617
0.0349388
0.0336963
0.0324375
0.0311661
0.0298859
0.0286007
0.0273121
0.0260193
0.0247281
0.023443
0.0221677
0.020906
0.0196625
0.0184361
0.0172284
0.016041
0.0148756
0.0137338
0.0126177
0.0115293
0.0104711
0.00944616
0.00845814
0.00751202
0.00661468
0.00575928
0.00495327
0.00420902
0.00355041
0.00289895
0.00224799
0.0015823
0.000885253
0.000216711
1.55609e-05
3.80486e-07
0.0534983
0.0534293
0.0532913
0.0530847
0.0528102
0.0524688
0.0520612
0.0515889
0.051053
0.0504551
0.049797
0.0490805
0.0483076
0.0474808
0.0466023
0.0456748
0.0447012
0.0436845
0.0426278
0.0415334
0.0404038
0.0392419
0.0380505
0.0368326
0.0355913
0.03433
0.033052
0.0317609
0.0304604
0.0291544
0.027844
0.0265291
0.0252165
0.0239094
0.0226116
0.0213268
0.0200591
0.0188092
0.0175784
0.0163682
0.01518
0.0140156
0.0128767
0.0117653
0.0106837
0.00963473
0.0086218
0.00764948
0.00672401
0.00584662
0.00501943
0.00425338
0.00356599
0.002904
0.00225898
0.00161849
0.000978061
0.000384388
6.14062e-05
2.5578e-06
0.0544337
0.0543642
0.0542252
0.0540171
0.0537407
0.0533968
0.0529864
0.0525106
0.0519708
0.0513684
0.0507053
0.0499832
0.0492042
0.0483705
0.0474846
0.0465492
0.0455669
0.0445409
0.0434745
0.0423702
0.0412305
0.0400582
0.038856
0.0376269
0.0363742
0.0351009
0.0338105
0.0325067
0.0311932
0.0298741
0.0285501
0.0272217
0.0258953
0.0245741
0.0232615
0.021961
0.0206764
0.0194116
0.0181659
0.0169407
0.0157374
0.0145572
0.0134018
0.0122728
0.0111722
0.0101025
0.00906643
0.0080676
0.0071114
0.00620508
0.00534937
0.00455235
0.00382418
0.00317166
0.00254815
0.00194788
0.00135422
0.000798995
0.000305771
1.73277e-05
0.0553583
0.0552839
0.0551352
0.0549126
0.0546169
0.054249
0.0538099
0.0533008
0.0527233
0.052079
0.0513697
0.0505975
0.0497647
0.0488737
0.0479272
0.0469282
0.0458799
0.0447866
0.0436511
0.0424758
0.0412638
0.0400179
0.0387412
0.0374371
0.0361091
0.0347608
0.0333961
0.0320191
0.030634
0.0292455
0.0278551
0.0264627
0.0250754
0.023697
0.0223312
0.0209825
0.0196552
0.0183498
0.0170676
0.0158102
0.0145787
0.0133748
0.0121998
0.0110555
0.00994402
0.0088687
0.00783472
0.0068491
0.00592028
0.00504449
0.00423339
0.00350471
0.00288015
0.0022849
0.00171423
0.00116333
0.000628396
0.000144844
1.26591e-05
2.89938e-07
0.0562592
0.0561794
0.0560197
0.0557807
0.0554631
0.055068
0.0545964
0.0540498
0.0534298
0.0527381
0.0519768
0.0511483
0.0502552
0.0493001
0.0482862
0.0472167
0.0460976
0.0449315
0.0437211
0.0424694
0.0411796
0.0398551
0.0384994
0.0371163
0.0357097
0.0342839
0.0328433
0.0313925
0.0299365
0.0284806
0.0270269
0.0255751
0.0241331
0.022705
0.0212957
0.0199101
0.01855
0.0172173
0.0159135
0.0146406
0.0134005
0.012195
0.0110268
0.00989836
0.00881326
0.00777572
0.00679116
0.0058664
0.00499776
0.00418595
0.00346126
0.00286029
0.00230569
0.00178863
0.0013012
0.000836987
0.000400574
8.36326e-05
6.50928e-06
1.35926e-07
0.0571419
0.0570567
0.0568863
0.0566312
0.0562924
0.0558707
0.0553674
0.0547841
0.0541224
0.0533844
0.0525723
0.0516887
0.0507365
0.0497188
0.0486391
0.0475047
0.0463183
0.0450827
0.043801
0.0424767
0.0411134
0.0397147
0.0382849
0.0368281
0.0353489
0.0338521
0.0323425
0.0308256
0.029307
0.0277927
0.0262855
0.0247848
0.0232988
0.0218327
0.0203921
0.0189806
0.0176003
0.0162529
0.0149405
0.0136648
0.0124281
0.0112325
0.0100807
0.00897602
0.00792271
0.00692653
0.00599558
0.00512666
0.00431714
0.00356344
0.002912
0.00240771
0.00193959
0.00149861
0.00107658
0.000668287
0.00028559
5.72158e-05
4.23227e-06
8.16581e-08
0.0580028
0.0579126
0.0577321
0.057462
0.057103
0.0566563
0.0561232
0.0555051
0.054804
0.054022
0.0531616
0.0522255
0.0512169
0.0501395
0.0490019
0.047807
0.0465575
0.0452569
0.0439085
0.0425162
0.041084
0.0396162
0.0381174
0.0365925
0.0350466
0.0334849
0.031913
0.030337
0.0287628
0.0271974
0.0256442
0.0241019
0.0225795
0.0210829
0.0196185
0.0181887
0.0167955
0.0154412
0.0141277
0.0128574
0.0116324
0.0104555
0.00932964
0.00825862
0.00724717
0.00630158
0.00543051
0.00462291
0.00387362
0.00317566
0.00258613
0.00215275
0.00174346
0.00135088
0.000970241
0.000599048
0.000250161
5.72898e-05
5.06131e-06
1.30635e-07
0.0588372
0.0587424
0.0585526
0.0582685
0.057891
0.0574212
0.0568603
0.05621
0.055472
0.0546488
0.0537429
0.0527572
0.0516952
0.0505673
0.0493761
0.0481246
0.0468162
0.0454546
0.0440437
0.0425878
0.0410913
0.0395591
0.0379964
0.0364088
0.0348018
0.0331814
0.0315538
0.0299253
0.0283026
0.0266928
0.0251002
0.0235228
0.0219703
0.0204496
0.0189663
0.0175228
0.0161214
0.0147643
0.0134536
0.0121916
0.0109807
0.00982374
0.00872397
0.00768542
0.00671329
0.00581434
0.0049971
0.0042445
0.00354986
0.0029006
0.00236349
0.00198985
0.00162407
0.00126764
0.000920616
0.000580908
0.000257108
7.54589e-05
1.01754e-05
5.47113e-07
0.0596402
0.059541
0.0593426
0.0590457
0.0586512
0.0581602
0.0575742
0.0568944
0.0561221
0.0552606
0.0543125
0.0532801
0.052175
0.0509998
0.0497576
0.0484522
0.0470876
0.0456682
0.0441984
0.0426824
0.0411249
0.0395316
0.0379085
0.0362618
0.0345983
0.0329244
0.0312467
0.0295717
0.0279061
0.0262573
0.0246294
0.0230203
0.0214402
0.0198991
0.0183999
0.0169453
0.015538
0.0141804
0.0128746
0.011623
0.0104281
0.0092929
0.00822107
0.00721716
0.00628732
0.00544078
0.0046691
0.0039685
0.0033322
0.00274599
0.00225882
0.00191267
0.00156569
0.00123231
0.000917146
0.000617366
0.000329861
0.00013647
3.33727e-05
4.59134e-06
0.060409
0.0603055
0.0600988
0.0597897
0.0593794
0.0588694
0.0582616
0.0575519
0.0567453
0.0558494
0.0548666
0.0538002
0.052654
0.0514322
0.0501393
0.0487803
0.0473607
0.0458863
0.0443635
0.0427908
0.0411748
0.0395224
0.0378407
0.0361374
0.0344206
0.0326989
0.0309779
0.0292635
0.0275626
0.025881
0.0242226
0.0225853
0.0209808
0.0194191
0.0179039
0.016439
0.0150273
0.0136707
0.0123708
0.0111299
0.0099506
0.00883619
0.00779078
0.00681858
0.00592459
0.00511805
0.00438826
0.00373496
0.00315592
0.00268579
0.00225853
0.00187229
0.00152455
0.00121457
0.000941446
0.000702771
0.000493756
0.000307904
0.000146376
4.79357e-05
0.0611372
0.0610299
0.0608151
0.0604938
0.060067
0.0595362
0.0589032
0.0581701
0.0573396
0.0564149
0.0553993
0.0542968
0.0531114
0.0518478
0.050511
0.0491068
0.0476409
0.0461198
0.0445431
0.0429171
0.0412483
0.039544
0.0378116
0.0360593
0.0342959
0.0325299
0.0307669
0.0290128
0.0272736
0.025556
0.0238607
0.0221944
0.0205661
0.0189818
0.017448
0.0159723
0.0145597
0.0132064
0.0119139
0.0106839
0.00951962
0.00842562
0.00740898
0.00647335
0.00561717
0.00483986
0.00414185
0.00352531
0.00299506
0.00256146
0.00215905
0.00178934
0.00145454
0.00115653
0.000895659
0.000669885
0.000474073
0.000300087
0.000146268
4.98453e-05
0.0618407
0.0617297
0.0615075
0.061175
0.0607336
0.0601848
0.0595305
0.0587731
0.0579153
0.0569603
0.0559117
0.0547735
0.0535502
0.0522467
0.0508685
0.0494218
0.0479133
0.0463432
0.0447175
0.0430426
0.0413254
0.0395735
0.0377947
0.0359978
0.0341919
0.032386
0.0305858
0.0287971
0.0270263
0.0252798
0.0235611
0.0218747
0.02023
0.0186332
0.0170913
0.0156123
0.0141991
0.0128528
0.01157
0.0103526
0.00920355
0.00812735
0.00713507
0.00622436
0.00539358
0.0046422
0.00397117
0.00338304
0.00288118
0.00246524
0.00207484
0.00171555
0.00139091
0.00110286
0.000851818
0.00063613
0.000451291
0.000289593
0.000145299
5.14407e-05
0.0625131
0.0623985
0.0621692
0.0618262
0.0613707
0.0608046
0.0601297
0.0593486
0.0584642
0.0574798
0.0563992
0.0552266
0.0539667
0.0526247
0.0512064
0.0497178
0.0481658
0.046551
0.04488
0.0431596
0.0413972
0.0396007
0.0377785
0.0359396
0.0340938
0.0322516
0.0304174
0.0285975
0.0267983
0.025027
0.023287
0.0215829
0.0199242
0.0183174
0.0167696
0.0152899
0.0138785
0.0125361
0.0112638
0.0100591
0.00892555
0.00786834
0.00689655
0.00600735
0.00519893
0.004471
0.00382561
0.00326854
0.0028116
0.00239028
0.002003
0.00165005
0.00133278
0.00105272
0.000810282
0.000603971
0.000429433
0.000278552
0.00014352
5.29785e-05
0.063154
0.0630359
0.0627997
0.0624464
0.0619773
0.0613943
0.0606994
0.0598953
0.0589851
0.0579721
0.0568605
0.0556547
0.0543596
0.0529808
0.0515245
0.0499973
0.0484013
0.0467425
0.0450277
0.0432637
0.0414583
0.0396195
0.0377561
0.0358777
0.0339946
0.0321179
0.0302518
0.0284026
0.0265771
0.0247827
0.0230235
0.0213035
0.0196328
0.0180182
0.0164674
0.014988
0.0135798
0.0122434
0.0109798
0.00978703
0.00866839
0.00762975
0.00667757
0.00580849
0.00502033
0.00431253
0.00368693
0.00314909
0.00271126
0.00230444
0.00192872
0.00158565
0.00127733
0.00100562
0.000771254
0.000573172
0.000407629
0.000267193
0.000142275
5.44864e-05
0.0637653
0.0636439
0.0634008
0.0630373
0.0625549
0.0619552
0.0612407
0.060414
0.0594784
0.0584375
0.0572954
0.0560568
0.0547271
0.0533122
0.0518186
0.0502497
0.0486126
0.0469122
0.0451555
0.0433498
0.0415029
0.0396235
0.0377207
0.0358044
0.0338857
0.0319762
0.0300798
0.0282028
0.0263525
0.0245364
0.0227592
0.0210247
0.0193432
0.0177221
0.0161701
0.0146927
0.013289
0.0119589
0.0107032
0.00952364
0.00842046
0.00740112
0.00646887
0.00561999
0.00485222
0.00416501
0.00356001
0.0030418
0.00262082
0.00222625
0.00186005
0.00152499
0.00122396
0.000959368
0.000732498
0.000542499
0.000385675
0.000254885
0.0001402
5.57916e-05
0.0643498
0.0642249
0.0639751
0.0636015
0.0631056
0.0624895
0.0617554
0.0609063
0.0599454
0.0588766
0.0577042
0.0564331
0.0550689
0.0536174
0.0520854
0.0504767
0.048799
0.0470578
0.0452601
0.0434136
0.0415264
0.0396074
0.0376661
0.0357132
0.03376
0.0318192
0.0298936
0.0279902
0.0261161
0.0242797
0.0224857
0.0207377
0.0190464
0.0174192
0.0158696
0.0143966
0.0129994
0.0116778
0.0104324
0.0092652
0.00817612
0.00717779
0.00626594
0.00543726
0.00468993
0.00402408
0.00344209
0.00294754
0.00253875
0.00215182
0.00179246
0.00146451
0.00117095
0.00091394
0.000694554
0.000512043
0.000363192
0.000241684
0.000137405
5.67633e-05
0.0649104
0.064782
0.0645253
0.0641414
0.0636321
0.0629992
0.0622454
0.0613736
0.0603874
0.0592906
0.0580878
0.0567842
0.0553855
0.0538982
0.0523264
0.0506769
0.0489574
0.0471761
0.045338
0.0434511
0.0415239
0.0395658
0.0375867
0.0355977
0.0336109
0.0316396
0.029686
0.0277569
0.0258601
0.0240041
0.0221944
0.0204343
0.0187354
0.017107
0.01556
0.0140923
0.0127027
0.0113908
0.0101573
0.00900459
0.00793387
0.00695485
0.00606265
0.00525381
0.00452682
0.00388308
0.00332884
0.00287832
0.00246158
0.00207632
0.00172255
0.00140164
0.00111558
0.000866274
0.000654736
0.00048022
0.000339631
0.000227
0.000132527
5.71804e-05
0.0654497
0.0653178
0.0650541
0.0646597
0.0641365
0.0634866
0.0627126
0.0618177
0.0608055
0.0596802
0.0584464
0.0571095
0.0556753
0.0541504
0.0525392
0.050849
0.0490879
0.047265
0.0453857
0.0434581
0.0414909
0.0394935
0.0374767
0.0354518
0.0334318
0.0314309
0.0294498
0.0274958
0.0255767
0.0237017
0.0218769
0.0201047
0.0183966
0.0167728
0.0152316
0.0137715
0.0123912
0.0110905
0.00987012
0.0087327
0.00768301
0.00672492
0.0058534
0.00506488
0.00435767
0.00373307
0.00319729
0.00276541
0.00236279
0.00198885
0.00164496
0.00133345
0.00105673
0.000816652
0.000613864
0.000447502
0.000314847
0.000210792
0.000126149
5.69738e-05
0.0659707
0.0658351
0.065564
0.0651588
0.0646212
0.0639537
0.0631589
0.0622401
0.0612011
0.0600464
0.0587808
0.0574099
0.0559399
0.0543754
0.0527232
0.0509908
0.0491864
0.0473192
0.0453991
0.0434305
0.0414227
0.0393857
0.0373307
0.0352699
0.0332167
0.0311864
0.0291783
0.0271999
0.0252591
0.0233655
0.0215264
0.0197448
0.0180353
0.0164146
0.0148795
0.0134278
0.0120581
0.0107701
0.0095649
0.00844556
0.00741813
0.00648236
0.00563301
0.00486649
0.00418119
0.00357826
0.003063
0.00264887
0.00225919
0.0018956
0.00156108
0.00125888
0.000991913
0.000761817
0.00056878
0.000411669
0.000287817
0.000192566
0.000117613
5.58815e-05
0.0664757
0.0663363
0.0660575
0.0656409
0.0650884
0.0644024
0.0635858
0.0626421
0.0615752
0.0603899
0.0590911
0.057685
0.0561763
0.0545713
0.0528771
0.0511013
0.0492527
0.0473408
0.0453766
0.0433651
0.0413155
0.0392379
0.0371439
0.0350463
0.0329597
0.0309001
0.0288654
0.026863
0.0249012
0.022988
0.0211326
0.0193378
0.0176349
0.0160214
0.0144948
0.0130535
0.0116962
0.0104229
0.00923494
0.00813565
0.00713332
0.00622187
0.00539652
0.00465414
0.00399381
0.00341738
0.00292914
0.00252871
0.00214759
0.00179204
0.00146656
0.00117483
0.000919301
0.000700904
0.000519236
0.000372642
0.000258283
0.000172092
0.000106911
5.36705e-05
0.0669671
0.0668236
0.0665367
0.0661082
0.0655399
0.0648345
0.063995
0.0630251
0.0619289
0.0607112
0.0593774
0.0579336
0.0563849
0.0547379
0.0529999
0.0511788
0.0492837
0.0473244
0.0453117
0.0432576
0.0411652
0.0390458
0.0369116
0.0347764
0.0326555
0.0305663
0.0285047
0.0264793
0.0244957
0.0225619
0.0206918
0.0188961
0.0171969
0.0155901
0.0140726
0.0126428
0.0112995
0.0100431
0.00887563
0.00780158
0.00682478
0.00593883
0.00513906
0.00442295
0.00379089
0.00324802
0.00280976
0.00240137
0.00202201
0.00167315
0.00135737
0.00107731
0.00083472
0.000629882
0.000461597
0.000327391
0.000223895
0.000147444
9.23825e-05
4.92673e-05
0.0674471
0.0672992
0.0670038
0.0665625
0.0659776
0.0652517
0.064388
0.0633904
0.0622632
0.0610115
0.0596411
0.0581573
0.0565664
0.0548751
0.053091
0.0512225
0.0492789
0.0472707
0.0452094
0.0431081
0.0409698
0.0388063
0.0366304
0.0344563
0.0323001
0.0301801
0.0280896
0.0260374
0.0240298
0.0220747
0.0201889
0.0184026
0.0167117
0.0151138
0.013607
0.0121902
0.010863
0.00962592
0.00848169
0.00743618
0.00648752
0.00562937
0.00485738
0.00416975
0.00356764
0.00305514
0.00263542
0.00223926
0.00187081
0.00153364
0.00123099
0.000965385
0.000738355
0.000549562
0.000396916
0.000276945
0.000185683
0.000119568
7.4242e-05
4.16068e-05
0.0679214
0.0677688
0.0674641
0.0670093
0.0664065
0.0656587
0.0647691
0.0637419
0.0625815
0.0612934
0.0598835
0.0583574
0.0567216
0.0549832
0.05315
0.051231
0.0492359
0.0471756
0.0450626
0.0429105
0.0407238
0.0385145
0.0362955
0.0340817
0.0318897
0.029738
0.0276174
0.0255375
0.0235033
0.0215225
0.0196435
0.0178625
0.0161775
0.0145872
0.0130911
0.0116887
0.0103798
0.00916494
0.0080471
0.00703283
0.0061143
0.00528572
0.00454365
0.00388802
0.00332343
0.00286198
0.0024405
0.00205015
0.00169109
0.00136592
0.00107761
0.000828583
0.000619715
0.000449704
0.000315556
0.000212889
0.000136955
8.34199e-05
4.90391e-05
2.73199e-05
0.0684391
0.0682879
0.067986
0.0675351
0.0669375
0.066196
0.0653138
0.0642948
0.0631436
0.0618654
0.060466
0.0589509
0.0573262
0.0555988
0.0537763
0.0518672
0.049881
0.0478279
0.0457197
0.0435691
0.0413906
0.0391874
0.0369718
0.0347582
0.032563
0.0304049
0.0282799
0.0261937
0.0241495
0.0221542
0.0202565
0.0184533
0.0167453
0.0151327
0.0136155
0.0121937
0.010867
0.00963253
0.00849085
0.00745078
0.00650616
0.00565068
0.00487949
0.00419035
0.00358425
0.00306598
0.00264406
0.00224319
0.00186906
0.00152549
0.00121645
0.000945361
0.00071427
0.000523361
0.000370594
0.00025207
0.000163144
9.90562e-05
5.60202e-05
3.01136e-05
0.0689572
0.0688083
0.0685107
0.0680662
0.0674769
0.0667454
0.0658749
0.0648691
0.0637322
0.0624703
0.061088
0.0595906
0.0579838
0.0562744
0.0544696
0.0525776
0.0506072
0.0485684
0.0464721
0.0443303
0.0421562
0.0399643
0.0377551
0.0355431
0.0333433
0.0311725
0.029049
0.0269584
0.0249053
0.0229004
0.0209752
0.0191365
0.0173944
0.0157495
0.0142011
0.0127508
0.0114038
0.0101443
0.00897442
0.0078988
0.00692098
0.00603267
0.00522794
0.00450376
0.00386068
0.00330419
0.00284776
0.00243108
0.00204161
0.0016803
0.0013515
0.00105946
0.000807149
0.000595718
0.000424141
0.000289369
0.000187282
0.000113209
6.26541e-05
3.23285e-05
0.0694697
0.0693227
0.069029
0.0685903
0.0680084
0.067286
0.066426
0.0654321
0.0643087
0.0630612
0.0616942
0.0602124
0.0586216
0.0569281
0.0551388
0.0532615
0.051305
0.0492786
0.047193
0.0450599
0.0428917
0.040703
0.0384971
0.036286
0.0340836
0.0319059
0.0297718
0.0276714
0.0256026
0.0235926
0.0216536
0.0197939
0.0180242
0.0163505
0.0147706
0.0132845
0.0118955
0.0106103
0.00941286
0.00830654
0.00729838
0.0063797
0.00554366
0.0047864
0.00410723
0.00350872
0.00299709
0.00258262
0.00218065
0.00180262
0.00145635
0.00114716
0.000878338
0.000651211
0.000465225
0.000317928
0.000205425
0.000123291
6.70713e-05
3.38577e-05
0.0699758
0.0698305
0.0695399
0.0691057
0.0685298
0.0678145
0.0669627
0.065978
0.0648662
0.0636307
0.0622758
0.0608064
0.059228
0.0575467
0.0557692
0.0539032
0.0519568
0.0499394
0.0478604
0.0457311
0.0435636
0.0413717
0.0391701
0.0369592
0.0347529
0.0325657
0.0304138
0.0283149
0.02624
0.0242195
0.0222656
0.0203863
0.0185913
0.0168933
0.0152863
0.0137702
0.0123466
0.0110203
0.00980045
0.0086702
0.00763417
0.00668833
0.00582481
0.00503941
0.00433148
0.00370408
0.00316456
0.00272584
0.00230397
0.00190888
0.0015472
0.00122351
0.000940918
0.000700876
0.000502926
0.000344862
0.000223022
0.000133234
7.14089e-05
3.52319e-05
0.0704764
0.0703323
0.0700442
0.0696135
0.0690421
0.0683321
0.0674861
0.0665101
0.0654069
0.0641804
0.0628346
0.0613742
0.0598047
0.058132
0.0563627
0.0545041
0.0525644
0.0505518
0.0484763
0.0463486
0.0441807
0.0419866
0.0397818
0.0375684
0.0353585
0.0331657
0.0310057
0.0288967
0.0268113
0.0247789
0.022811
0.0209145
0.0190991
0.0173772
0.0157462
0.0142049
0.0127538
0.0113956
0.0101362
0.00898586
0.0079286
0.00695905
0.00607027
0.00525864
0.00452392
0.00386954
0.00330372
0.00284083
0.0024005
0.00199074
0.00161641
0.0012813
0.000988205
0.000738391
0.000531401
0.000365169
0.000236214
0.000140569
7.44769e-05
3.62434e-05
0.0709728
0.0708296
0.0705431
0.070115
0.069547
0.0688412
0.0680005
0.0670303
0.0659332
0.0647128
0.063373
0.0619187
0.0603549
0.0586875
0.0569231
0.0550685
0.0531316
0.0511207
0.0490455
0.0469163
0.0447448
0.0425441
0.0403288
0.038115
0.0359016
0.0337026
0.0315338
0.0294141
0.0273188
0.0252763
0.023296
0.0213844
0.0195508
0.0178078
0.0161559
0.0145935
0.0131201
0.0117374
0.0104496
0.00926376
0.00819115
0.00720034
0.00628801
0.00545191
0.004692
0.00401173
0.00342003
0.00293401
0.00247826
0.00205708
0.00167313
0.00132945
0.00102858
0.000771489
0.000557439
0.00038432
0.000248975
0.000147752
7.74542e-05
3.7098e-05
0.0714661
0.0713234
0.0710379
0.0706112
0.0700453
0.069342
0.0685063
0.0675403
0.0664472
0.0652304
0.063894
0.0624427
0.0608817