/*--------------------------------*- C++ -*----------------------------------*\
| =========                 |                                                 |
| \\      /  F ield         | OpenFOAM: The Open Source CFD Toolbox           |
|  \\    /   O peration     | Version:  v1906                                 |
|   \\  /    A nd           | Web:      www.OpenFOAM.com                      |
|    \\/     M anipulation  |                                                 |
\*---------------------------------------------------------------------------*/
FoamFile
{
    version     2.0;
    format      ascii;
    class       volScalarField;
    location    "2.83";
    object      CO2;
}
// * * * * * * * * * * * * * * * * * * * * * * * * * * * * * * * * * * * * * //

dimensions      [0 0 0 0 0 0 0];


internalField   nonuniform List<scalar> 
26400
(
0.292081
0.292094
0.292119
0.292156
0.292206
0.292268
0.292342
0.292426
0.292523
0.292629
0.292746
0.292872
0.293008
0.293151
0.293303
0.293461
0.293626
0.293795
0.293969
0.294146
0.294325
0.294505
0.294685
0.294862
0.295037
0.295206
0.295368
0.295521
0.295663
0.295789
0.295899
0.295995
0.296074
0.296135
0.296175
0.296193
0.296187
0.296156
0.296098
0.296011
0.295894
0.295749
0.295577
0.295376
0.295148
0.294893
0.29461
0.294298
0.293955
0.293576
0.293152
0.292667
0.292195
0.291709
0.291113
0.290035
0.289759
0.290547
0.292916
0.298376
0.291822
0.291835
0.291861
0.2919
0.291952
0.292016
0.292092
0.29218
0.29228
0.29239
0.29251
0.292641
0.292781
0.292929
0.293084
0.293247
0.293416
0.29359
0.293768
0.293949
0.294131
0.294315
0.294497
0.294678
0.294854
0.295024
0.295187
0.29534
0.295481
0.295606
0.295712
0.295804
0.295878
0.295933
0.295965
0.295973
0.295957
0.295914
0.295841
0.295738
0.295604
0.29544
0.295246
0.295023
0.294771
0.294488
0.294176
0.293832
0.293451
0.293027
0.292541
0.292053
0.291565
0.291056
0.290439
0.289336
0.289076
0.289931
0.292419
0.298053
0.291501
0.291515
0.291542
0.291583
0.291638
0.291705
0.291785
0.291877
0.291981
0.292096
0.292222
0.292358
0.292504
0.292658
0.29282
0.292989
0.293164
0.293344
0.293527
0.293714
0.293902
0.29409
0.294277
0.294461
0.294641
0.294814
0.294979
0.295132
0.295273
0.295397
0.295501
0.295589
0.295659
0.295707
0.295732
0.29573
0.295703
0.295647
0.295559
0.295439
0.295287
0.295104
0.294889
0.294642
0.294364
0.294055
0.293713
0.293336
0.292922
0.292463
0.291942
0.29142
0.290894
0.290347
0.289698
0.288574
0.288347
0.289286
0.291915
0.29774
0.291159
0.291174
0.291202
0.291246
0.291303
0.291374
0.291458
0.291556
0.291665
0.291786
0.291919
0.292062
0.292214
0.292375
0.292544
0.292721
0.292903
0.293089
0.29328
0.293473
0.293667
0.293861
0.294054
0.294242
0.294426
0.294602
0.294769
0.294924
0.295065
0.295188
0.295291
0.295376
0.29544
0.295482
0.295499
0.295488
0.295449
0.29538
0.295277
0.29514
0.29497
0.294766
0.294528
0.294257
0.293953
0.293614
0.293239
0.292828
0.292375
0.291875
0.291319
0.290757
0.290184
0.289579
0.288876
0.287753
0.287576
0.288615
0.291411
0.297426
0.290802
0.290818
0.290849
0.290895
0.290956
0.291031
0.291121
0.291224
0.29134
0.291468
0.291608
0.291758
0.291918
0.292087
0.292265
0.292449
0.292639
0.292834
0.293032
0.293233
0.293434
0.293634
0.293833
0.294027
0.294215
0.294395
0.294565
0.294722
0.294863
0.294986
0.295087
0.295169
0.295229
0.295264
0.295274
0.295253
0.295202
0.295119
0.295001
0.294847
0.294657
0.294432
0.294172
0.293876
0.293543
0.293174
0.292765
0.292315
0.291816
0.291258
0.29068
0.290079
0.289444
0.288747
0.287921
0.28686
0.286765
0.287916
0.290904
0.297114
0.290432
0.290448
0.290482
0.290531
0.290597
0.290677
0.290773
0.290883
0.291006
0.291142
0.29129
0.291449
0.291618
0.291796
0.291982
0.292176
0.292375
0.292578
0.292785
0.292994
0.293203
0.293411
0.293615
0.293816
0.294009
0.294193
0.294366
0.294526
0.294668
0.294791
0.29489
0.294969
0.295025
0.295054
0.295055
0.295025
0.294962
0.294865
0.294731
0.294559
0.29435
0.294103
0.293819
0.293496
0.293135
0.292734
0.292291
0.291803
0.291265
0.29067
0.290052
0.289402
0.288694
0.287858
0.286664
0.285912
0.285926
0.28718
0.290372
0.29679
0.290045
0.290063
0.290099
0.290153
0.290224
0.290312
0.290415
0.290532
0.290664
0.290809
0.290966
0.291135
0.291314
0.291502
0.291698
0.291901
0.29211
0.292323
0.29254
0.292757
0.292975
0.293191
0.293403
0.29361
0.293809
0.293999
0.294176
0.294338
0.294482
0.294605
0.294703
0.294779
0.29483
0.294854
0.294847
0.294806
0.294731
0.29462
0.294469
0.294279
0.29405
0.293781
0.293472
0.293122
0.292731
0.292297
0.291817
0.291286
0.290695
0.290075
0.289424
0.288734
0.287983
0.287102
0.285866
0.28508
0.285084
0.286405
0.289808
0.296446
0.289637
0.289657
0.289698
0.28976
0.289839
0.289934
0.290046
0.290173
0.290314
0.290469
0.290636
0.290816
0.291005
0.291204
0.291412
0.291626
0.291846
0.29207
0.292296
0.292524
0.292751
0.292976
0.293196
0.293411
0.293616
0.293812
0.293993
0.294159
0.294305
0.294429
0.294526
0.2946
0.294647
0.294664
0.294649
0.294597
0.29451
0.294383
0.294216
0.294007
0.293757
0.293465
0.293131
0.292753
0.292332
0.291865
0.291349
0.29078
0.290149
0.289486
0.288789
0.288049
0.287246
0.286316
0.285042
0.28422
0.284201
0.285575
0.289194
0.296071
0.289231
0.289252
0.289294
0.289358
0.289442
0.289547
0.289667
0.289804
0.289956
0.290122
0.290301
0.290491
0.290693
0.290904
0.291123
0.291349
0.291581
0.291817
0.292055
0.292293
0.292531
0.292766
0.292995
0.293218
0.293431
0.293633
0.29382
0.29399
0.294139
0.294263
0.294361
0.294432
0.294475
0.294487
0.294463
0.294401
0.294301
0.29416
0.293975
0.293747
0.293475
0.293159
0.292798
0.292391
0.291938
0.291435
0.29088
0.29027
0.289598
0.28889
0.288141
0.287344
0.286477
0.285486
0.28418
0.283331
0.28328
0.284685
0.288526
0.295662
0.28882
0.288842
0.288887
0.288953
0.289041
0.289149
0.289278
0.289426
0.289589
0.289767
0.289958
0.290162
0.290376
0.2906
0.290833
0.291072
0.291317
0.291565
0.291816
0.292066
0.292316
0.292561
0.292801
0.293033
0.293255
0.293464
0.293657
0.293831
0.293984
0.294111
0.294208
0.294278
0.294317
0.294323
0.294292
0.29422
0.294108
0.29395
0.293748
0.293499
0.293204
0.292863
0.292474
0.292037
0.29155
0.291009
0.290411
0.289748
0.289042
0.28829
0.287486
0.286619
0.285666
0.284581
0.283278
0.282421
0.282332
0.28374
0.287788
0.295177
0.288402
0.288425
0.288472
0.288542
0.288634
0.288748
0.288884
0.289039
0.289212
0.289404
0.289608
0.289826
0.290054
0.290293
0.29054
0.290793
0.291052
0.291314
0.291579
0.291843
0.292104
0.292362
0.292613
0.292856
0.293087
0.293304
0.293504
0.293685
0.293841
0.293971
0.29407
0.294139
0.294175
0.294175
0.294136
0.294055
0.29393
0.293756
0.293535
0.293265
0.292947
0.29258
0.292163
0.291695
0.291175
0.290598
0.289961
0.289256
0.288504
0.287699
0.286834
0.28589
0.28482
0.283507
0.282347
0.281508
0.281368
0.282737
0.286968
0.294594
0.287974
0.287999
0.288048
0.288122
0.288219
0.28834
0.288483
0.288647
0.28883
0.289033
0.289252
0.289484
0.289727
0.289981
0.290243
0.290512
0.290787
0.291064
0.291343
0.291622
0.291898
0.292169
0.292432
0.292687
0.292928
0.293155
0.293363
0.293551
0.293713
0.293846
0.293947
0.294016
0.294051
0.294048
0.294004
0.293918
0.293775
0.293582
0.29334
0.293048
0.292706
0.292312
0.291866
0.291366
0.290811
0.290197
0.289519
0.288771
0.287971
0.287116
0.286196
0.285193
0.284069
0.282715
0.281518
0.280626
0.280404
0.281699
0.286049
0.293852
0.287534
0.28756
0.287613
0.28769
0.287794
0.287921
0.288072
0.288245
0.28844
0.288654
0.288885
0.289133
0.289393
0.289663
0.289942
0.290228
0.290519
0.290814
0.291109
0.291404
0.291695
0.291981
0.292258
0.292525
0.292779
0.293017
0.293235
0.29343
0.293599
0.293737
0.293841
0.293911
0.293945
0.293938
0.293887
0.293791
0.293634
0.293425
0.293164
0.292851
0.292484
0.292062
0.291586
0.291053
0.290462
0.289808
0.289088
0.288294
0.287444
0.286532
0.285549
0.284476
0.28328
0.281904
0.280686
0.279745
0.279436
0.280634
0.285037
0.292901
0.287081
0.287108
0.287163
0.287246
0.287355
0.287489
0.287649
0.287832
0.288038
0.288264
0.28851
0.288772
0.28905
0.289338
0.289635
0.289939
0.290249
0.290561
0.290874
0.291187
0.291495
0.291797
0.292091
0.292372
0.29264
0.29289
0.293119
0.293323
0.2935
0.293645
0.293753
0.293827
0.293861
0.293853
0.293799
0.29369
0.293519
0.293294
0.293015
0.292679
0.292288
0.291839
0.291331
0.290764
0.290135
0.289441
0.288676
0.287833
0.286931
0.28596
0.284906
0.283739
0.282391
0.281077
0.279856
0.27887
0.278474
0.27955
0.283922
0.2917
0.286612
0.286641
0.2867
0.286787
0.286902
0.287044
0.287213
0.287406
0.287624
0.287863
0.288123
0.288401
0.288695
0.289002
0.289319
0.289643
0.289972
0.290304
0.290637
0.290969
0.291296
0.291617
0.291928
0.292226
0.292509
0.292774
0.293016
0.293232
0.293419
0.293571
0.293686
0.293763
0.293798
0.293789
0.29373
0.293614
0.293432
0.293194
0.292897
0.292541
0.292126
0.29165
0.291111
0.290509
0.28984
0.289103
0.288292
0.2874
0.286445
0.285419
0.284309
0.283087
0.281692
0.280329
0.279056
0.278004
0.27752
0.278471
0.2827
0.290214
0.286127
0.286158
0.286219
0.286311
0.286433
0.286583
0.286761
0.286966
0.287195
0.287448
0.287723
0.288017
0.288328
0.288654
0.288991
0.289336
0.289687
0.29004
0.290395
0.290747
0.291096
0.291437
0.291768
0.292085
0.292386
0.292667
0.292925
0.293155
0.293354
0.293518
0.293641
0.293725
0.293765
0.293758
0.293696
0.293573
0.293384
0.293134
0.292823
0.292449
0.292011
0.291509
0.290939
0.290301
0.289593
0.288812
0.287952
0.287008
0.285995
0.284909
0.283737
0.282455
0.28101
0.279595
0.278262
0.277137
0.27655
0.277341
0.281294
0.288478
0.285624
0.285656
0.285721
0.285818
0.285946
0.286104
0.286292
0.286507
0.28675
0.287017
0.287307
0.287617
0.287946
0.288291
0.288649
0.289016
0.289389
0.289765
0.290143
0.290518
0.290889
0.291253
0.291606
0.291946
0.292268
0.292569
0.292845
0.293093
0.293307
0.293484
0.293619
0.293712
0.293759
0.293757
0.293697
0.293574
0.293381
0.293125
0.292804
0.292416
0.291959
0.291433
0.290835
0.290163
0.289416
0.28859
0.287681
0.286683
0.285608
0.284455
0.283215
0.281868
0.280369
0.278895
0.277493
0.276275
0.275547
0.2761
0.279678
0.286578
0.285101
0.285135
0.285204
0.285305
0.28544
0.285606
0.285803
0.28603
0.286284
0.286565
0.286871
0.287198
0.287545
0.287909
0.288287
0.288676
0.289073
0.289473
0.289875
0.290275
0.290671
0.29106
0.291439
0.291804
0.292151
0.292476
0.292776
0.293044
0.293278
0.29347
0.29362
0.293727
0.293788
0.293794
0.293742
0.293624
0.293436
0.29318
0.292855
0.292459
0.291989
0.291444
0.290823
0.290121
0.289338
0.288471
0.287515
0.286467
0.285319
0.284089
0.282771
0.281347
0.279783
0.278237
0.276752
0.275426
0.274532
0.274815
0.277927
0.284548
0.284559
0.284595
0.284666
0.284772
0.284913
0.285087
0.285293
0.285531
0.285797
0.286092
0.286412
0.286755
0.28712
0.287503
0.287901
0.288312
0.288731
0.289156
0.289582
0.290007
0.290428
0.290843
0.291248
0.291639
0.292012
0.292364
0.292689
0.292984
0.293244
0.293462
0.293635
0.293763
0.293843
0.293868
0.293832
0.293731
0.293556
0.293311
0.292993
0.292598
0.292125
0.291571
0.290932
0.290207
0.289392
0.288482
0.287474
0.286363
0.285142
0.283826
0.282411
0.280888
0.279232
0.277587
0.275995
0.274555
0.273522
0.273551
0.276023
0.282315
0.283998
0.284035
0.284109
0.28422
0.284366
0.284547
0.284762
0.285009
0.285287
0.285594
0.285928
0.286287
0.286668
0.28707
0.287487
0.287919
0.28836
0.288808
0.289259
0.289709
0.290157
0.290599
0.291031
0.291449
0.291851
0.292232
0.292587
0.292913
0.293203
0.293453
0.293658
0.293818
0.293927
0.293981
0.293975
0.293902
0.293756
0.293535
0.293238
0.29286
0.2924
0.291853
0.291216
0.290485
0.289655
0.28872
0.287675
0.286513
0.285227
0.28382
0.282295
0.280648
0.278871
0.277075
0.27532
0.273721
0.272548
0.272404
0.274261
0.279753
0.283413
0.283452
0.283528
0.283642
0.283794
0.283981
0.284203
0.284459
0.284747
0.285066
0.285413
0.285786
0.286183
0.286601
0.287037
0.287489
0.287951
0.288422
0.288897
0.289372
0.289846
0.290314
0.290775
0.291223
0.291655
0.292068
0.292457
0.292818
0.293145
0.293434
0.293679
0.293879
0.29403
0.294128
0.294166
0.29414
0.294044
0.293871
0.293621
0.293291
0.292878
0.292377
0.291785
0.291095
0.290303
0.289401
0.288382
0.287237
0.285957
0.284531
0.282963
0.281254
0.279402
0.277418
0.275403
0.273435
0.271644
0.270507
0.271191
0.277747
0.282824
0.282866
0.28295
0.283075
0.28324
0.283445
0.283688
0.283968
0.284284
0.284632
0.285012
0.285421
0.285855
0.286312
0.28679
0.287283
0.287788
0.2883
0.288816
0.289332
0.289845
0.290352
0.290849
0.291333
0.291798
0.292241
0.292657
0.293041
0.293386
0.293686
0.293936
0.294136
0.294279
0.294361
0.294376
0.294316
0.294176
0.293953
0.293645
0.293247
0.292756
0.292166
0.291473
0.290669
0.289746
0.288696
0.287509
0.286174
0.28468
0.283032
0.281216
0.279212
0.276998
0.274714
0.272415
0.270207
0.268325
0.267459
0.269752
0.278854
0.282239
0.282285
0.282377
0.282513
0.282694
0.282919
0.283185
0.283492
0.283838
0.284219
0.284635
0.285082
0.285558
0.286058
0.286579
0.287118
0.287666
0.28822
0.288777
0.289334
0.289887
0.290433
0.290967
0.291485
0.291982
0.292453
0.292892
0.293293
0.29365
0.293956
0.294204
0.294393
0.294518
0.294573
0.29455
0.294443
0.294248
0.293961
0.29358
0.2931
0.292517
0.291826
0.291021
0.290095
0.289041
0.287848
0.286506
0.285003
0.283343
0.28153
0.279525
0.277286
0.274959
0.272598
0.270279
0.268118
0.266348
0.265656
0.268009
0.276852
0.281657
0.281706
0.281806
0.281954
0.282151
0.282395
0.282684
0.283018
0.283393
0.283808
0.28426
0.284746
0.285263
0.285806
0.286372
0.286951
0.287539
0.288134
0.288732
0.28933
0.289923
0.290507
0.291077
0.291629
0.292157
0.292655
0.293117
0.293536
0.293905
0.294216
0.294461
0.294641
0.294749
0.29478
0.294723
0.294575
0.294332
0.29399
0.293546
0.292997
0.292337
0.29156
0.290661
0.289632
0.288463
0.287142
0.285658
0.284015
0.282223
0.280294
0.278168
0.275794
0.273379
0.270975
0.268645
0.266486
0.264707
0.263942
0.265934
0.274066
0.28108
0.281133
0.28124
0.2814
0.281612
0.281874
0.282186
0.282545
0.282949
0.283396
0.283884
0.284408
0.284965
0.285552
0.286154
0.286771
0.287398
0.288032
0.28867
0.289307
0.289939
0.290561
0.291167
0.291752
0.29231
0.292834
0.293318
0.293754
0.294134
0.29445
0.294692
0.294863
0.294955
0.294962
0.294873
0.294686
0.294397
0.294004
0.293503
0.292889
0.292159
0.291306
0.290324
0.289205
0.28794
0.286518
0.284925
0.283179
0.281293
0.279287
0.277083
0.274627
0.272153
0.269708
0.267347
0.265151
0.263284
0.262257
0.263543
0.270335
0.280513
0.28057
0.280684
0.280854
0.28108
0.281359
0.281692
0.282075
0.282506
0.282984
0.283506
0.284067
0.284664
0.285283
0.285921
0.286574
0.287239
0.287912
0.288589
0.289266
0.289936
0.290596
0.291237
0.291856
0.292443
0.292993
0.293498
0.29395
0.294341
0.294661
0.294901
0.295064
0.295143
0.295129
0.295014
0.294794
0.294468
0.294032
0.293482
0.292814
0.292024
0.291105
0.290052
0.288855
0.287506
0.285991
0.284298
0.282455
0.280477
0.278393
0.276113
0.273578
0.271061
0.268591
0.266202
0.263946
0.261938
0.260549
0.260887
0.265783
0.27996
0.28002
0.28014
0.28032
0.280559
0.280855
0.281206
0.281611
0.282068
0.282574
0.283126
0.283723
0.284348
0.284998
0.28567
0.28636
0.287063
0.287775
0.288491
0.289207
0.289916
0.290614
0.291292
0.291943
0.292559
0.293133
0.293657
0.294122
0.294522
0.294846
0.295084
0.295241
0.29531
0.295277
0.295137
0.294888
0.294527
0.294051
0.293455
0.292736
0.29189
0.290911
0.289791
0.288522
0.287092
0.285487
0.283718
0.281795
0.279732
0.277559
0.275215
0.272651
0.270116
0.267619
0.265188
0.262857
0.260682
0.258849
0.257991
0.26007
0.279423
0.279486
0.279613
0.279802
0.280053
0.280363
0.280732
0.281159
0.281639
0.282167
0.282741
0.283356
0.284008
0.284692
0.285402
0.286132
0.286876
0.287627
0.288377
0.289131
0.28988
0.290618
0.291334
0.292021
0.292666
0.293261
0.293799
0.294274
0.294676
0.295001
0.295238
0.295392
0.295453
0.295407
0.29525
0.294977
0.294585
0.294072
0.293436
0.292672
0.291776
0.290743
0.289563
0.288228
0.28673
0.285052
0.283211
0.281209
0.279052
0.276695
0.274258
0.271765
0.269245
0.26673
0.264248
0.26182
0.259443
0.257065
0.254599
0.252384
0.278904
0.278971
0.279103
0.279302
0.279564
0.279888
0.280274
0.280717
0.281215
0.281765
0.282363
0.283004
0.283684
0.284397
0.285137
0.285897
0.286671
0.287451
0.28824
0.289031
0.289815
0.290585
0.291332
0.292045
0.292714
0.293328
0.293882
0.294369
0.294783
0.295116
0.295364
0.295519
0.295573
0.295521
0.295353
0.29506
0.294635
0.294085
0.293408
0.2926
0.291657
0.290571
0.289328
0.287922
0.286353
0.284622
0.282727
0.280666
0.278435
0.276026
0.273556
0.271039
0.2685
0.265971
0.263485
0.26107
0.258729
0.256416
0.254043
0.251875
0.278394
0.278463
0.278601
0.278808
0.279081
0.279419
0.27982
0.280281
0.2808
0.281372
0.281994
0.282661
0.283368
0.284109
0.284877
0.285666
0.286467
0.287282
0.288105
0.288928
0.289743
0.290542
0.291314
0.292051
0.292739
0.293369
0.293935
0.294431
0.294849
0.295183
0.295424
0.295568
0.295608
0.295536
0.295345
0.295023
0.294566
0.293975
0.293255
0.292403
0.291414
0.29028
0.288983
0.287523
0.285903
0.284122
0.282177
0.280065
0.277785
0.275345
0.272854
0.270322
0.267772
0.265234
0.262744
0.260333
0.258015
0.25576
0.253486
0.251378
0.2779
0.277972
0.278116
0.27833
0.278614
0.278965
0.279381
0.27986
0.280398
0.280992
0.281637
0.282329
0.283062
0.28383
0.284627
0.285444
0.286275
0.28712
0.287973
0.288826
0.289669
0.290494
0.291291
0.292049
0.292755
0.293398
0.293972
0.294473
0.294892
0.295223
0.295456
0.295587
0.29561
0.295517
0.295299
0.294944
0.294453
0.293826
0.293062
0.292165
0.291129
0.289945
0.288598
0.28709
0.285422
0.283594
0.281602
0.279437
0.277085
0.274654
0.272158
0.269616
0.267052
0.264501
0.262003
0.259597
0.257306
0.255106
0.25292
0.25088
0.277424
0.277499
0.277647
0.277869
0.278163
0.278527
0.278958
0.279454
0.280011
0.280626
0.281294
0.282009
0.282767
0.28356
0.284382
0.285225
0.286088
0.286964
0.287846
0.288726
0.289595
0.290445
0.291263
0.29204
0.292762
0.293415
0.293997
0.294501
0.29492
0.295246
0.295469
0.295586
0.29559
0.295473
0.295225
0.294837
0.29431
0.293645
0.29284
0.2919
0.290818
0.289585
0.288189
0.286634
0.284921
0.283051
0.281019
0.278817
0.27643
0.273973
0.271457
0.268901
0.266328
0.263769
0.261266
0.258861
0.256586
0.254436
0.25234
0.250375
0.276965
0.277042
0.277196
0.277425
0.277729
0.278105
0.27855
0.279063
0.279639
0.280274
0.280963
0.281702
0.282484
0.283303
0.28415
0.285022
0.285913
0.286817
0.287725
0.288631
0.289525
0.290396
0.291235
0.292029
0.292765
0.293427
0.294014
0.29452
0.294937
0.295256
0.295468
0.295568
0.295552
0.295409
0.295128
0.294704
0.294138
0.293433
0.292589
0.291602
0.290473
0.289188
0.287742
0.286138
0.284379
0.282465
0.280392
0.278153
0.275736
0.27326
0.270732
0.268166
0.265584
0.263017
0.26051
0.25811
0.255856
0.253754
0.251742
0.249862
0.276521
0.276601
0.276759
0.276996
0.27731
0.277697
0.278157
0.278686
0.27928
0.279935
0.280646
0.281408
0.282214
0.283058
0.283932
0.284832
0.285749
0.286679
0.287613
0.288543
0.289459
0.290351
0.291208
0.292018
0.292765
0.293434
0.294025
0.294531
0.294943
0.295254
0.295452
0.295535
0.295496
0.295326
0.295006
0.294542
0.293934
0.293187
0.292298
0.291266
0.290091
0.288751
0.287253
0.2856
0.283794
0.281833
0.279713
0.277429
0.274988
0.272498
0.269961
0.26739
0.264806
0.262241
0.259736
0.257342
0.255104
0.253047
0.251123
0.249334
0.276091
0.276173
0.276337
0.276581
0.276904
0.277304
0.277778
0.278323
0.278934
0.279609
0.280341
0.281126
0.281955
0.282823
0.283725
0.284653
0.285599
0.286553
0.28751
0.288463
0.2894
0.290312
0.291186
0.292009
0.292766
0.29344
0.294032
0.294535
0.294941
0.295241
0.295423
0.295485
0.295419
0.295213
0.294854
0.294346
0.293695
0.292901
0.291964
0.290882
0.289652
0.288259
0.286708
0.285005
0.28315
0.281139
0.278964
0.276603
0.27417
0.271678
0.269136
0.266562
0.263978
0.261415
0.258917
0.256535
0.254322
0.252312
0.250476
0.24879
0.275673
0.275758
0.275927
0.276178
0.276511
0.276923
0.277411
0.277972
0.278602
0.279296
0.280049
0.280856
0.28171
0.282603
0.283531
0.284486
0.285459
0.286438
0.287419
0.288393
0.289351
0.290281
0.29117
0.292005
0.292769
0.293446
0.294037
0.294535
0.294932
0.295218
0.295381
0.295421
0.295329
0.295077
0.294671
0.294116
0.293416
0.292572
0.291584
0.290449
0.289159
0.287707
0.286101
0.284345
0.282439
0.280382
0.278164
0.275762
0.273301
0.270788
0.268234
0.265657
0.263079
0.260529
0.258049
0.255686
0.253498
0.251535
0.249789
0.248218
0.275266
0.275353
0.275527
0.275786
0.276129
0.276553
0.277055
0.277633
0.278281
0.278995
0.27977
0.280599
0.281476
0.282395
0.283351
0.284333
0.285333
0.28634
0.287343
0.288337
0.289313
0.290259
0.291163
0.292008
0.292778
0.293454
0.29404
0.294531
0.294916
0.295185
0.295325
0.295335
0.295203
0.294906
0.294451
0.293845
0.293091
0.292192
0.291148
0.289952
0.288598
0.287083
0.285415
0.2836
0.281638
0.279527
0.277259
0.274818
0.272328
0.269797
0.267233
0.264653
0.262081
0.259549
0.257092
0.254759
0.252608
0.250701
0.249053
0.247613
0.274867
0.274957
0.275137
0.275404
0.275757
0.276193
0.276711
0.277305
0.277972
0.278706
0.279503
0.280354
0.281257
0.282203
0.283185
0.284194
0.285221
0.286254
0.28728
0.288294
0.289289
0.29025
0.291166
0.292019
0.292792
0.293465
0.294045
0.294524
0.294893
0.295143
0.295258
0.295242
0.295054
0.294701
0.294191
0.293527
0.292715
0.291755
0.290646
0.289384
0.287956
0.286371
0.284635
0.282753
0.280725
0.278548
0.276216
0.273734
0.271218
0.268667
0.266091
0.26351
0.260951
0.258442
0.256022
0.253733
0.251632
0.249789
0.248245
0.246952
0.274476
0.274569
0.274754
0.275029
0.275393
0.275843
0.276376
0.276987
0.277674
0.278429
0.279248
0.280124
0.281052
0.282024
0.283033
0.28407
0.285124
0.286184
0.287237
0.288269
0.289279
0.290255
0.29118
0.29204
0.292814
0.29348
0.29405
0.294514
0.294862
0.295084
0.29517
0.295107
0.294865
0.294455
0.293884
0.293157
0.292278
0.291249
0.290066
0.288725
0.287218
0.285555
0.283743
0.281785
0.279679
0.277418
0.27498
0.272488
0.26995
0.267377
0.264785
0.262197
0.259643
0.257159
0.25478
0.25255
0.250515
0.248746
0.247314
0.246191
0.274092
0.274187
0.274378
0.274662
0.275037
0.275501
0.276049
0.276679
0.277386
0.278163
0.279006
0.279907
0.280861
0.28186
0.282896
0.283961
0.285042
0.286128
0.287205
0.288257
0.289284
0.290273
0.291208
0.292072
0.292844
0.2935
0.294057
0.294505
0.294832
0.29503
0.295083
0.294951
0.294642
0.294165
0.293525
0.292727
0.291773
0.290665
0.289399
0.287966
0.286369
0.284618
0.282719
0.280674
0.27848
0.276133
0.27363
0.271086
0.268505
0.265897
0.26328
0.260679
0.25813
0.255672
0.253345
0.251187
0.249238
0.247557
0.246223
0.24525
0.273709
0.273808
0.274004
0.274297
0.274684
0.275163
0.275729
0.276378
0.277106
0.277906
0.278773
0.279701
0.280682
0.281709
0.282774
0.283867
0.284976
0.286088
0.28719
0.288264
0.289308
0.290308
0.291249
0.292113
0.292879
0.293522
0.294063
0.294491
0.294795
0.294969
0.29495
0.294748
0.29437
0.293821
0.293106
0.292227
0.291187
0.289987
0.288622
0.287083
0.285383
0.283528
0.281525
0.279372
0.277062
0.274579
0.272025
0.269423
0.266783
0.264122
0.261461
0.25883
0.256272
0.25383
0.251551
0.249475
0.247638
0.246071
0.244799
0.243906
0.27329
0.273388
0.273583
0.273874
0.274259
0.274734
0.275296
0.275942
0.276665
0.277462
0.278325
0.279249
0.280227
0.281252
0.282317
0.283411
0.284524
0.285643
0.286756
0.287847
0.288899
0.28991
0.290866
0.291751
0.292543
0.293218
0.293787
0.294246
0.294587
0.294805
0.294836
0.29469
0.294368
0.293875
0.293214
0.292387
0.291398
0.290251
0.288948
0.287474
0.285841
0.284057
0.282128
0.280056
0.277839
0.275468
0.272932
0.270353
0.267728
0.265065
0.26238
0.259697
0.257052
0.254494
0.252073
0.24984
0.247837
0.246104
0.24468
0.243641
0.272869
0.272965
0.273158
0.273446
0.273825
0.274295
0.274851
0.27549
0.276206
0.276994
0.277849
0.278765
0.279736
0.280755
0.281815
0.282907
0.28402
0.285143
0.286264
0.287367
0.288438
0.289458
0.290431
0.291339
0.292165
0.292885
0.293477
0.293967
0.294345
0.294599
0.294694
0.294623
0.294373
0.293948
0.293351
0.292584
0.29164
0.290546
0.289299
0.287893
0.286323
0.2846
0.282734
0.280727
0.278577
0.276274
0.273797
0.271242
0.268633
0.265976
0.263277
0.260556
0.257841
0.255179
0.252622
0.250228
0.248055
0.246154
0.244566
0.243371
0.27245
0.272545
0.272736
0.27302
0.273395
0.27386
0.27441
0.275042
0.275752
0.276532
0.277379
0.278288
0.279253
0.280267
0.281322
0.282412
0.283524
0.28465
0.285776
0.286888
0.287972
0.289009
0.289998
0.290926
0.291776
0.292527
0.293154
0.293678
0.294096
0.294373
0.294503
0.294476
0.29428
0.293908
0.293368
0.292662
0.291788
0.290736
0.289533
0.288175
0.286651
0.284974
0.283152
0.281191
0.279088
0.276838
0.27443
0.271847
0.269224
0.266548
0.26382
0.261053
0.258274
0.255526
0.252864
0.250353
0.24806
0.246046
0.244359
0.24309
0.272033
0.272128
0.272316
0.272598
0.27297
0.273431
0.273977
0.274604
0.275306
0.27608
0.276921
0.277824
0.278784
0.279794
0.280847
0.281935
0.283048
0.284176
0.285309
0.286432
0.287531
0.288589
0.289587
0.29053
0.291401
0.29218
0.292848
0.293381
0.293819
0.294121
0.29428
0.29429
0.294137
0.293806
0.29331
0.292651
0.291829
0.290838
0.289667
0.288341
0.286854
0.285212
0.283425
0.281498
0.279431
0.277213
0.274833
0.272268
0.269651
0.26697
0.264223
0.26142
0.258589
0.25577
0.253022
0.250414
0.24802
0.24591
0.244144
0.24282
0.271618
0.271712
0.2719
0.272179
0.272549
0.273007
0.27355
0.274172
0.274868
0.275637
0.276473
0.277372
0.278329
0.279337
0.280388
0.281476
0.282591
0.283724
0.284862
0.285995
0.287105
0.288178
0.289191
0.290148
0.291032
0.291829
0.292516
0.293071
0.29353
0.293854
0.294037
0.294074
0.293951
0.293655
0.293191
0.292566
0.291779
0.29083
0.289711
0.288405
0.286939
0.285321
0.283559
0.281658
0.279614
0.27742
0.275059
0.272507
0.26989
0.267196
0.264426
0.261588
0.258708
0.255827
0.253005
0.250319
0.24785
0.245678
0.243872
0.24254
0.271205
0.271298
0.271485
0.271763
0.27213
0.272586
0.273125
0.273743
0.274436
0.275201
0.276035
0.276932
0.277887
0.278893
0.279945
0.281034
0.282152
0.283289
0.284435
0.285576
0.2867
0.287788
0.288824
0.289786
0.29068
0.291489
0.292193
0.292766
0.293241
0.29358
0.293781
0.293838
0.29374
0.29347
0.293032
0.292431
0.291669
0.290747
0.28966
0.288396
0.28694
0.285339
0.283599
0.281719
0.279697
0.277525
0.275185
0.272646
0.270027
0.267321
0.26453
0.261664
0.258744
0.255811
0.252928
0.250175
0.247641
0.245417
0.243585
0.24226
0.270791
0.270885
0.271071
0.271348
0.271715
0.272169
0.272704
0.273318
0.274008
0.274771
0.275604
0.2765
0.277455
0.278462
0.279515
0.280607
0.281729
0.282871
0.284024
0.285174
0.286309
0.287411
0.288462
0.289437
0.290341
0.291161
0.291879
0.292469
0.292953
0.293301
0.293515
0.293587
0.293508
0.29326
0.29284
0.292256
0.291511
0.290606
0.289535
0.28829
0.286853
0.285272
0.283548
0.281684
0.279679
0.277525
0.275206
0.272685
0.270057
0.267335
0.264522
0.261625
0.258665
0.255684
0.252747
0.249936
0.247352
0.245093
0.243256
0.24197
0.270377
0.270471
0.270657
0.270935
0.2713
0.271749
0.272281
0.272893
0.273583
0.274346
0.275178
0.276075
0.277031
0.27804
0.279096
0.280192
0.281318
0.282466
0.283626
0.284786
0.285933
0.28705
0.288121
0.289116
0.290013
0.290836
0.291567
0.292184
0.292661
0.293014
0.293238
0.293324
0.293261
0.293035
0.292624
0.292051
0.291318
0.290424
0.289363
0.288129
0.28671
0.285145
0.283436
0.281585
0.279594
0.277456
0.27516
0.27268
0.270019
0.267278
0.264446
0.261523
0.258529
0.255506
0.25252
0.24966
0.247029
0.244741
0.242907
0.241674
0.269962
0.270056
0.27024
0.270514
0.270876
0.271324
0.271855
0.272468
0.273159
0.273923
0.274757
0.275656
0.276615
0.277627
0.278687
0.279787
0.280918
0.282073
0.283241
0.28441
0.285567
0.286698
0.287775
0.288779
0.289686
0.290513
0.291249
0.291873
0.292358
0.29272
0.292953
0.29305
0.292998
0.292783
0.292384
0.291822
0.291096
0.290208
0.289151
0.287915
0.286517
0.284966
0.283267
0.281423
0.279439
0.277311
0.275028
0.272569
0.269899
0.267149
0.264302
0.261354
0.258325
0.25526
0.252229
0.249323
0.246654
0.244345
0.242527
0.241369
0.269536
0.269628
0.269811
0.270084
0.270446
0.270895
0.271428
0.272043
0.272735
0.273502
0.274339
0.275242
0.276204
0.277221
0.278285
0.27939
0.280528
0.281689
0.282864
0.284042
0.28521
0.286345
0.287432
0.288451
0.289382
0.2902
0.290934
0.291561
0.292053
0.292422
0.292663
0.292767
0.292724
0.292517
0.292129
0.291573
0.290855
0.289971
0.288919
0.287688
0.286296
0.284751
0.283059
0.281219
0.279239
0.277116
0.274841
0.272392
0.269728
0.266977
0.264116
0.261143
0.25808
0.254977
0.251905
0.248958
0.246252
0.243923
0.242125
0.241061
0.269098
0.26919
0.269374
0.269649
0.270013
0.270464
0.270999
0.271616
0.272312
0.273083
0.273924
0.274831
0.275799
0.276821
0.277891
0.279002
0.280146
0.281313
0.282496
0.283683
0.284853
0.285992
0.287084
0.288111
0.28905
0.289875
0.290615
0.291247
0.291745
0.29212
0.292367
0.292478
0.29244
0.292241
0.291859
0.29131
0.290596
0.289716
0.288666
0.287437
0.286046
0.284502
0.282812
0.280974
0.278996
0.276877
0.274609
0.272171
0.269519
0.266771
0.263897
0.260893
0.257793
0.254652
0.25154
0.248554
0.245814
0.243468
0.241697
0.24075
0.268655
0.268748
0.268933
0.26921
0.269575
0.270029
0.270567
0.271188
0.271889
0.272664
0.273511
0.274424
0.275398
0.276426
0.277503
0.27862
0.27977
0.280944
0.282132
0.283323
0.284497
0.28564
0.286739
0.287773
0.288722
0.289556
0.290299
0.290933
0.291435
0.291815
0.292067
0.292182
0.292149
0.291954
0.291578
0.291034
0.290322
0.289444
0.288394
0.287165
0.285772
0.284227
0.282535
0.280701
0.27872
0.276604
0.274344
0.27192
0.269287
0.266546
0.263658
0.260617
0.257478
0.2543
0.251153
0.24813
0.245355
0.24299
0.241245
0.240444
0.268207
0.2683
0.268487
0.268765
0.269133
0.26959
0.270133
0.270759
0.271465
0.272247
0.2731
0.27402
0.275001
0.276037
0.277121
0.278245
0.279403
0.280584
0.281779
0.28297
0.284145
0.285291
0.286394
0.287436
0.288398
0.289257
0.289985
0.290616
0.291121
0.291507
0.291766
0.291881
0.291849
0.291657
0.291287
0.290747
0.290037
0.289158
0.288106
0.286874
0.285477
0.283927
0.282231
0.280393
0.278411
0.276298
0.274046
0.271641
0.269041
0.266313
0.263411
0.260314
0.257133
0.253923
0.250743
0.247683
0.244874
0.242487
0.240767
0.24015
0.267753
0.267847
0.268035
0.268316
0.268688
0.269149
0.269697
0.270329
0.271041
0.27183
0.272691
0.273619
0.274608
0.275652
0.276744
0.277876
0.279041
0.28023
0.281427
0.282619
0.283796
0.284942
0.286045
0.287087
0.288051
0.288914
0.289647
0.290286
0.290798
0.291197
0.291471
0.291577
0.291539
0.291347
0.29099
0.290455
0.289744