/*--------------------------------*- C++ -*----------------------------------*\
| =========                 |                                                 |
| \\      /  F ield         | OpenFOAM: The Open Source CFD Toolbox           |
|  \\    /   O peration     | Version:  v1906                                 |
|   \\  /    A nd           | Web:      www.OpenFOAM.com                      |
|    \\/     M anipulation  |                                                 |
\*---------------------------------------------------------------------------*/
FoamFile
{
    version     2.0;
    format      ascii;
    class       volScalarField::Internal;
    location    "2.83";
    object      coalCloud1:radAreaPT4;
}
// * * * * * * * * * * * * * * * * * * * * * * * * * * * * * * * * * * * * * //

dimensions      [0 2 0 4 0 0 0];


value           nonuniform List<scalar> 
26400
(
14.4068
25.3526
32.6996
10.8233
41.7785
19.3418
29.0176
18.3891
9.95813
38.3889
18.0171
39.3303
5.30905
5.88438
18.3196
31.9493
12.1896
19.2199
57.2455
25.2664
10.8171
4.1636
17.736
45.9213
5.22965
19.5267
23.9773
11.6766
17.503
7.1351
13.1147
18.6674
32.7714
12.4555
6.57878
41.6681
16.3806
26.541
0
0
0
22.3828
0
3.84134
0
0
0
0
11.3004
0
0
0
0
0
0
0
0
0
0
0
28.7771
40.5605
50.0127
32.0477
10.7944
19.7392
40.4536
13.4643
13.0536
10.2837
27.3216
18.1738
23.0058
11.2385
16.8064
1.50186
11.2454
4.68104
8.89258
32.2161
24.8283
2.59104
29.3383
10.4233
4.89572
0
24.7058
1.44023
8.17538
1.81066
23.1558
20.7358
0
10.6197
19.6621
0
0
38.8458
18.0655
28.1386
12.0635
0
0.246165
23.7833
0
0
0
17.423
7.13823
0
0
0
0
0
0
0
0
0
0
0
17.8751
9.89327
22.6923
50.6912
0
34.1913
26.1864
18.3835
14.016
34.6481
18.8161
0
20.4915
38.3308
48.3171
36.427
23.1985
21.0541
21.4945
5.95769
7.99897
9.07534
0
16.5987
25.1802
12.9228
20.9052
8.69157
21.9179
10.2229
2.32485
7.48804
15.018
0
0
22.4699
40.2675
27.8083
11.5804
22.8635
8.02575
20.9134
20.7357
10.9934
17.3088
11.8083
0
0
0
0
0
0
0
0
0
0
0
0
0
0
8.24897
9.43053
22.5434
10.1411
24.8958
29.9118
27.4803
46.903
10.8683
26.8685
30.242
5.91493
16.5983
24.7242
8.19659
18.2123
3.48347
40.2329
0
16.9925
5.17682
30.2089
6.49208
10.5035
25.1515
0
7.64623
7.76056
20.5584
17.1084
4.03896
0
18.8462
16.9659
27.9677
8.27554
20.9635
6.60742
0
18.2446
8.72276
3.71803
24.7265
34.645
0
3.39915
25.7065
12.1376
0
0
0
0
0
0
0
0
0
0
0
0
31.8143
18.3621
14.269
29.2958
15.6917
27.6618
22.8767
48.9191
6.8119
18.6941
29.9841
5.76692
0
28.1022
34.2979
33.8748
6.46372
5.20882
44.6375
6.44971
18.6423
7.18063
26.6557
23.8376
11.5729
34.8905
30.1133
4.20795
21.8721
19.5671
38.2233
13.3756
22.1959
25.2236
2.99618
28.6503
8.35044
0
20.0494
0
10.4083
7.27924
25.5536
44.3611
6.12119
11.4329
0
2.53121
0
0
0
0
0
0
0
0
0
0
0
0
30.1645
51.6146
13.5946
15.7977
43.8441
42.8219
38.7652
49.0304
5.33432
7.71641
30.9381
17.6836
0
18.9506
18.2676
10.5139
0
0
4.28628
28.8751
34.7608
43.9917
11.6107
13.0482
0
0
20.5184
0
3.47549
27.2982
7.8334
7.87343
39.4017
0
6.84374
42.2819
1.96314
14.6897
10.8609
14.5191
2.36262
31.9416
16.4828
0
23.7958
26.1524
0
0
0
0
0
0
0
0
0
0
0
0
0
0
29.5444
40.7372
17.8738
6.16953
2.31629
33.1969
14.8136
29.5128
23.3811
16.5182
15.9212
51.7727
33.0395
13.1278
17.1981
7.7119
19.409
5.94066
5.13391
21.8025
7.04312
38.2493
0
0
28.6038
30.687
19.0703
0
6.76508
6.2382
19.7623
9.24597
15.0241
12.1393
25.5881
34.7803
9.49632
0
1.66738
14.0642
10.151
0
12.7189
3.21048
24.0656
0
0
0
29.4084
0
0
0
0
0
0
0
0
0
0
0
11.5193
33.1058
35.2037
27.7653
18.5355
25.995
47.6415
29.072
18.1812
21.6924
19.9592
16.3833
16.1406
36.5483
36.7891
15.2734
23.8293
5.51984
4.72412
13.663
28.3527
0
3.95298
38.1155
1.53174
13.9697
64.3439
16.1822
0
2.35868
1.1302
20.6199
49.0261
27.9146
24.0639
8.65067
38.0752
30.4683
15.9737
53.8808
6.78355
11.8611
21.834
8.87483
5.13824
0
0
0
1.77566
0
0
0
0
0
0
0
0
0
0
0
6.56566
18.8825
38.4779
27.3764
9.73939
25.1581
16.2996
11.4462
7.11497
21.1175
21.2625
35.7337
5.90252
76.3477
43.1727
39.0026
36.2855
23.445
0.494401
11.4171
0
22.596
8.508
40.4136
0
20.4888
0
21.1498
10.5543
7.59073
29.5279
3.20884
22.1509
43.6617
0
5.20605
0
10.0514
9.36072
27.8806
11.8631
18.1913
28.126
11.9891
9.03727
0
0
0
22.9359
0
0
0
0
0
0
0
0
0
0
0
16.8942
27.361
23.0734
0.261884
5.76901
22.7933
33.5101
71.7173
22.346
1.99248
35.3152
13.8943
16.4264
26.1623
32.9271
12.7289
15.1575
26.4781
12.8817
17.5889
0.343101
1.74489
35.0192
12.0563
25.532
0
5.50178
32.399
17.1434
37.4202
7.29524
21.7784
10.2058
32.9106
21.1931
30.3412
19.2425
8.28023
0
5.12702
0
10.8973
7.88141
11.9967
38.22
16.7271
33.0406
16.2804
0
0
0
0
0
0
0
0
0
0
0
0
23.8954
32.0338
3.52243
9.7963
40.7043
10.0389
50.7485
22.1762
22.0883
17.6508
13.9097
17.3358
22.412
24.7979
18.8919
0
5.89586
18.9676
15.4252
21.3758
17.6488
8.98182
25.6472
20.6405
2.93943
25.3433
7.51964
15.7321
11.2313
31.6926
10.4399
5.58385
0
1.14659
7.79166
0
11.5729
0
11.4667
24.293
20.4059
0
27.0717
0
0
15.6582
9.77621
15.2527
0
0
0
0
0
0
0
0
0
0
0
0
32.9812
17.4194
28.9278
16.2108
18.5081
10.6619
9.59668
0
52.3863
32.8384
22.3201
3.08082
27.3503
37.5919
23.3729
15.7004
6.60609
32.6721
13.7842
17.9026
4.96365
25.6076
35.4643
9.95309
0
16.5165
28.4991
25.3871
35.9015
17.6326
5.99592
31.9999
6.72954
20.4439
26.5992
2.68219
19.3826
8.2098
18.7663
1.00105
13.7335
0
10.2868
0
0
13.878
5.85605
0
0
0
16.9325
0
0
0
0
0
0
0
0
0
22.3748
16.6053
35.4803
61.6146
18.1751
31.7335
24.0567
6.38323
25.3525
7.98212
48.2373
2.33507
0
22.2489
12.4975
14.6689
22.2781
5.88471
46.956
11.2384
4.55616
5.03545
22.7307
0
6.9334
14.9947
23.6635
8.92925
28.7036
24.9515
0.315195
16.6732
19.309
3.62472
31.82
7.37933
23.5188
0
40.3831
8.15214
22.2719
11.1741
0
11.0751
0
0
7.60498
0
0
0
0
0
0
0
0
0
0
0
0
0
38.7405
31.0252
19.0172
25.7836
40.8636
43.1189
9.80382
11.5797
16.0648
41.7484
22.6639
5.8538
33.6094
25.4041
7.00308
9.23575
5.20221
6.15111
27.3173
33.303
17.9654
11.7802
9.49019
7.8025
6.57742
16.8372
0.715942
6.45698
0
0
8.35739
2.01375
11.2518
12.0677
12.8896
24.2123
32.0751
16.1743
19.359
5.22342
0
0
51.2541
0
12.6306
0
0
0
0
0
0
0
0
0
0
0
0
0
0
0
25.1581
28.7559
13.9335
12.7418
18.026
33.7079
51.9198
20.9067
34.2306
18.5064
41.4388
22.9718
1.59219
49.3256
6.55104
27.7351
19.8534
14.9081
0
0.233596
21.0441
35.6586
10.4313
18.4757
21.7856
18.2444
11.1003
33.6829
27.6507
19.9359
8.3824
28.1618
0
8.15327
24.2746
30.7863
38.7589
14.424
17.471
19.7112
23.3589
30.7752
39.52
14.5503
0
0
0
0
0
0
0
0
0
0
0
0
0
0
0
0
49.0129
31.104
13.4869
6.64224
8.30221
21.1896
38.4951
5.16297
53.791
0
33.9186
48.8157
12.9787
16.8114
7.46327
34.3052
54.6031
20.7291
18.3345
46.8448
13.6025
25.3294
23.4727
1.93547
7.984
7.80554
18.1555
22.2451
8.92412
2.75768
1.29089
20.4388
8.30135
8.25281
7.33629
15.1504
0
23.5221
8.00628
22.1465
0
21.2408
0.615858
0
0
0
0
0
0
0
0
0
0
0
0
0
0
0
0
0
15.3665
6.97972
4.80164
51.9739
17.192
3.74126
19.1999
15.6786
32.8071
28.9501
33.3876
34.5591
18.9975
22.546
6.41895
8.02024
0
24.7059
8.04019
0.307538
15.8033
14.863
36.127
11.6428
13.9492
17.0695
38.2354
31.7349
0
10.7564
11.6882
7.46848
19.7635
16.3255
5.8378
13.7135
10.7265
3.57144
20.4835
11.2006
0
9.79165
22.6851
0
0
5.80989
0
2.108
12.536
0
0
0
0
0
0
0
0
0
0
0
20.4073
19.0403
8.98885
30.761
20.8996
23.9066
30.596
26.1198
32.7043
39.7001
10.9728
20.8589
20.1247
22.0283
42.0332
46.4944
8.21664
36.273
30.8135
27.6057
16.8825
8.85465
4.44794
0
11.7777
15.5355
19.871
15.5536
20.8803
20.3509
7.67906
15.2441
7.98089
30.5475
8.81587
42.6611
8.03701
17.2686
6.37863
20.571
4.63793
0
5.5789
44.2787
0
63.2177
0
0
0
32.0058
4.31136
0
0
0
0
0
0
0
0
0
22.0371
7.81356
34.9098
17.8982
25.9356
16.6736
45.2709
16.6185
30.7274
27.9005
18.9576
49.8071
0.180382
25.1332
20.4142
13.8439
14.6483
42.5302
18.2807
0
10.9858
3.78156
54.1954
10.4042
21.5776
0
2.61821
15.2476
7.90592
3.27454
14.3008
12.7812
26.43
14.0577
9.24924
18.1163
7.95808
22.6631
11.251
15.369
3.26162
9.9447
3.58995
11.1804
0.856795
0
0
0
0
0
15.2068
0
0
0
0
0
0
0
0
0
19.3876
31.2974
13.5657
8.66496
12.6422
29.2265
34.226
16.9907
34.2623
12.8584
49.7027
37.0684
20.2743
5.05462
30.0109
19.0569
32.2752
0.465575
32.0724
6.90283
32.2725
35.1168
28.169
2.29614
10.8477
11.4929
0
18.2568
4.93289
6.48064
17.2867
22.3436
0
0
13.071
15.3976
27.4637
26.2137
0.703856
35.7022
20.2683
0
0
9.14406
0
6.15735
1.56414
0
5.1465
0
0
0
0
0
0
0
0
0
0
0
20.1127
14.6804
43.7686
47.8409
25.2911
0
28.371
32.998
32.7394
51.8737
7.93879
26.9371
10.2414
31.9653
22.6732
21.4527
18.736
14.9692
23.1351
12.7092
7.23031
42.7963
18.9158
16.4401
4.54895
3.66865
9.97486
13.2038
31.2218
32.7255
0
21.0108
10.8414
28.0887
13.772
0
33.2344
11.1661
10.2706
16.0869
16.5535
24.9569
7.59422
7.31935
0
13.6199
14.8148
2.61482
10.7512
0
0
0
0
0
0
0
0
0
0
51.3794
9.34679
0
20.7589
39.1907
34.8591
5.67566
0
60.9448
15.9283
27.6114
27.5612
50.6243
41.129
13.2245
22.9692
1.66741
28.3108
0
16.0075
12.0487
0
23.3619
2.59962
7.69879
26.0476
14.0988
11.9799
16.9915
0
0.728451
22.4131
11.4915
16.2664
30.7682
18.7987
5.20215
40.8447
6.75043
27.2428
6.53101
26.2703
27.1761
13.9529
34.3435
24.1756
18.3016
0
0
0
16.1565
0
0
0
0
0
0
0
0
0
53.1834
31.3585
24.4081
63.1285
18.9379
29.2309
38.6148
59.0358
22.3975
24.5966
25.2286
26.9365
12.1474
37.8386
37.8439
27.9756
0
36.8205
0
23.8093
18.4327
16.5004
23.6109
20.9361
0
8.38973
2.87102
6.96134
7.43141
8.03508
0
0
54.9561
2.50176
20.3445
14.2507
30.6603
38.0535
9.74363
0
15.0884
21.8477
22.6397
17.8934
13.0398
1.32363
14.8868
0
0
0
10.2769
0
0
0
0
0
0
0
0
0
18.3349
9.99883
35.1573
13.8773
30.1955
28.1471
37.4713
35.9545
25.9114
31.4223
18.9337
61.8957
31.487
13.137
0
61.0479
32.1549
21.9724
3.60993
6.89395
6.13402
21.8835
12.3039
13.1185
25.7911
0
6.95815
48.3764
15.1394
18.3737
27.1927
14.2506
9.07484
20.7922
27.3664
0.119204
34.7056
10.2053
7.41782
0
4.45897
5.45411
10.9432
16.3369
23.297
15.2412
9.80776
0
13.8263
0
11.4315
0
0
0
0
0
0
0
0
0
38.6465
40.5499
18.4722
31.5611
47.8275
37.4384
11.2865
2.22727
11.8945
6.46202
30.3701
12.5806
7.53863
45.109
21.9339
30.5532
16.5332
43.8776
27.4063
45.1027
10.5565
0
12.5162
47.5176
53.6732
13.3137
6.21086
22.104
29.4704
19.7815
14.6203
27.2374
41.9934
34.9786
32.9405
0
12.0715
52.243
6.76839
22.5818
13.8015
11.8232
38.1128
17.0688
31.3905
30.1907
0
15.2555
0
0
0
0
0
0
0
0
0
0
0
0
33.6644
44.8553
16.3634
35.8894
37.9538
33.45
22.6014
22.4454
78.0056
12.4871
22.5211
53.1582
46.3397
67.2152
29.5013
18.1197
14.5738
16.2879
14.0963
8.35961
20.5759
10.0826
18.3827
24.8483
12.3005
7.35087
11.9061
13.8022
29.255
9.19099
9.05199
15.9421
45.1514
39.6665
6.07982
0
28.5416
35.9602
17.4478
36.5326
0
0
38.7149
0
19.9931
0
16.4718
0
14.8527
0
0
0
0
0
0
0
0
0
0
0
17.0994
31.1177
10.4981
13.7708
6.19391
12.6988
17.086
53.4663
29.5531
17.3395
29.0155
32.661
28.9749
15.8254
37.8329
30.8422
16.8176
29.6738
6.60728
12.1007
16.415
39.3892
16.4634
3.61943
57.7286
0
43.7838
11.9667
17.0222
11.7151
17.4026
53.0319
24.53
14.8897
30.8741
0
21.2563
28.7602
8.20685
58.4788
25.2867
15.8196
37.9454
0
12.5206
14.8229
15.0086
0.386223
13.3674
18.9883
0
0
0
0
0
0
0
0
0
0
13.8735
38.0499
44.4005
67.7081
22.7565
30.1407
21.0708
18.6757
26.9207
42.0657
67.7886
51.2355
43.2011
13.8239
4.85063
65.6066
36.6428
38.9719
41.9831
9.25026
5.04264
10.992
0
0
11.1839
22.7191
15.8079
16.3554
25.4779
38.0935
32.7926
38.8715
45.9098
62.3719
3.23462
8.81482
24.4266
8.00697
19.8277
21.6296
0
11.6732
16.472
10.0176
13.1259
0
20.8155
24.7457
4.31339
0
0
0
0
0
0
0
0
0
0
0
39.309
18.2753
65.4207
36.2087
22.2588
37.3865
36.6304
38.0907
34.566
44.3675
30.6429
53.7009
20.6348
87.6882
32.5561
27.3418
6.25709
48.388
10.8389
35.123
20.3966
5.45611
15.3703
17.929
30.4408
20.0948
21.4949
17.7837
9.89097
34.668
46.6209
36.443
62.4904
33.7184
1.20448
3.28909
29.6952
12.2854
10.2293
44.6645
0.751419
46.909
30.9259
0
12.0556
27.0365
13.2269
22.9419
19.0883
0
0
0
0
0
0
0
0
0
0
0
10.6391
0
55.619
85.9042
33.3397
22.3348
86.8516
20.9393
27.4134
53.2494
19.813
32.6926
24.4429
46.6112
28.3738
0
16.41
8.51841
8.70652
21.8785
14.5847
9.39301
21.7013
10.8844
26.0733
38.2855
37.3491
21.1584
30.3495
7.1134
36.1733
37.1842
20.8867
31.3899
7.01606
6.74328
12.4229
28.8802
24.1054
0
32.7917
48.0358
0
0
28.2095
28.2167
14.0762
17.8109
0
0
0
0
18.3323
0
0
0
0
0
0
0
18.6212
37.6654
43.9874
57.5776
46.7938
29.8107
14.4945
11.588
20.9994
56.0726
22.0063
34.322
28.2744
26.0105
8.1006
47.8337
37.7061
16.5186
27.3842
14.9033
29.687
37.3232
36.5627
43.5236
21.4186
27.9644
36.1457
26.5966
4.8073
14.6678
11.9574
24.7599
26.02
14.7784
7.61432
10.7892
38.1468
0
32.8144
46.3088
19.1633
33.8227
17.9561
10.8365
58.2588
0.246813
31.3106
14.5747
0
0
34.7464
0
0
0
0
0
0
0
0
0
8.17054
31.4056
46.0565
21.7727
47.3034
19.6073
64.1713
71.693
28.0026
65.7428
38.4334
62.2794
38.636
53.7922
10.8479
37.4084
17.8287
18.3432
21.5119
11.1738
37.6526
54.3521
57.6408
13.9193
21.4669
5.48978
24.8701
16.2351
9.65096
17.2493
2.09002
50.679
29.2567
44.9221
76.3483
51.463
17.2147
34.0756
19.6504
0
19.3882
25.1038
17.2611
16.0738
0
0
0
0
0
43.2541
6.83623
16.5488
0
0
0
0
0
0
0
0
7.34566
71.1967
30.4247
35.6017
7.99575
52.2721
41.3132
78.0932
25.842
49.4918
67.6
27.7982
36.1974
39.5442
36.6437
32.2778
18.4018
24.9102
23.5903
0
15.3317
40.2337
0
9.01015
8.44007
19.0329
53.0778
20.498
17.62
9.89433
25.7907
5.38908
40.4401
0
64.5718
24.9943
11.063
37.7342
35.6424
47.4023
33.1616
22.6592
9.66539
47.0078
13.105
15.693
0
0
22.505
20.2947
0
0
0
0
0
0
0
0
0
0
0
12.711
32.8367
50.5421
55.3428
32.6232
89.6749
32.1154
67.2216
34.4378
33.8183
35.668
81.8925
64.5035
44.214
25.3852
70.2462
54.8534
25.5922
25.0509
19.7411
16.3765
17.4048
25.8308
12.5853
33.1515
33.3724
0
58.6311
22.0215
31.2334
0
33.7027
9.6469
42.3395
34.88
0
0
71.8707
0
51.2765
50.8318
0
30.6348
3.47628
12.9365
0
0
0
0
0
0
0
0
0
0
0
0
0
0
20.6772
27.1393
40.7931
76.9022
80.3008
53.9655
90.8355
62.2837
50.8889
55.8689
29.4647
52.1656
28.0373
63.7737
17.562
49.9307
17.2122
18.9321
31.1609
19.5505
46.9214
51.7641
25.2253
4.01538
29.4061
31.4042
38.2787
36.6266
12.9073
16.9272
18.265
18.273
45.9936
26.2815
48.2038
19.1324
25.5437
28.5672
30.2208
0
61.6011
36.7161
10.1585
47.1703
8.14285
30.5189
0
18.9449
0
0
0
0
0
0
0
0
0
0
0
0
75.507
25.9827
37.1291
26.2679
49.6352
34.7126
53.5667
40.7419
30.2945
38.4213
76.5229
8.95373
45.5466
15.065
47.7397
3.00062
31.7758
42.905
6.78295
20.9582
27.1192
20.6175
27.4674
12.3192
25.0885
26.3584
34.146
23.6794
2.04031
12.9564
76.1896
13.6745
39.7571
5.84581
71.2393
29.6716
9.05327
0
22.2765
31.3654
33.9793
0.712162
10.6005
0
7.96775
4.29024
22.7254
21.1827
0
0
0
0
0
0
0
0
0
0
0
0
0
67.0987
73.2794
19.6391
25.1589
35.0417
44.4426
83.3397
68.1617
50.79
93.8847
62.0966
67.6067
12.3758
57.7246
43.1821
28.0991
44.9153
0
77.3444
9.56252
28.2781
44.9525
36.4104
12.5655
6.81169
6.17296
38.7479
16.4947
18.1053
32.4382
27.8029
14.3402
8.68777
13.6557
36.693
41.4871
53.5401
34.4564
43.0141
121.693
12.9975
0
36.8887
51.1343
45.6606
0
6.50289
11.4497
0
0
0
0
0
0
0
0
0
0
0
5.3595
21.1644
31.7833
28.0351
63.0778
24.9664
47.6353
61.6533
34.0683
69.6943
50.9532
36.8266
5.97877
31.2107
50.4172
33.8567
43.5629
59.329
38.2849
55.2648
32.7951
23.9179
29.457
12.7614
32.672
33.1386
16.9251
33.5389
16.6525
18.3647
52.648
41.3434
2.89303
25.6604
46.2766
43.5935
12.6859
39.4431
27.1876
91.4297
111.219
0
23.6512
0.247052
10.131
18.5533
0
0
0
21.7349
0
0
0
0
0
0
0
0
0
0
0
74.9749
37.8417
44.7018
58.2758
15.591
42.4115
78.08
26.0262
20.6153
29.2708
19.4561
68.5648
19.0572
73.1392
30.3828
21.2685
48.133
19.8909
27.238
23.6897
48.9211
58.8243
52.5561
26.7979
81.2396
43.2697
25.8124
44.4384
47.9002
54.3282
26.4823
34.1799
26.1629
21.332
39.2842
19.0287
20.7354
19.1297
20.9762
34.4639
0
36.09
13.4024
2.68252
49.1745
0
0
0
0
0
0
0
0
0
0
0
0
0
0
0
48.5531
49.1635
59.9468
14.2623
47.5284
77.237
72.3781
48.7751
46.4447
53.801
79.5524
8.75339
29.3111
26.3962
38.2248
31.2907
40.9802
24.9931
7.78921
26.7871
17.5719
43.2255
39.1314
21.3567
22.9667
32.107
16.7716
35.1063
29.295
51.4697
14.3952
31.9348
6.97496
52.4904
31.6479
12.5017
34.8249
36.9484
38.1493
37.1276
0
0
0.375328
27.1569
32.2437
0
0
0
0
0
0
0
0
0
0
0
0
0
0
0
35.8135
36.2602
29.7565
41.1946
73.048
58.7287
54.7598
65.1872
50.5676
15.1331
58.6582
69.0724
43.645
43.262
40.2388
22.3099
35.3113
25.2341
51.7207
23.2077
36.7511
31.0397
13.5756
71.5807
17.9499
34.5075
6.27625
39.4626
45.2904
47.2503
44.4839
10.5802
90.2551
20.8119
26.2869
26.4685
22.291
13.0993
29.7863
44.2011
40.6864
40.6015
29.2345
23.3073
0
0
0
0
0
0
0
0
0
0
0
0
0
0
0
0
64.1067
66.9286
50.7056
25.4175
29.7137
44.0791
57.6837
98.3326
71.8583
40.2019
42.2986
32.4507
57.9811
69.8554
56.164
57.2286
81.9179
10.5643
36.4718
11.3535
14.697
28.9783
14.5625
67.843
40.7021
31.3971
13.1857
28.613
11.9537
29.2356
67.3445
15.6387
12.0456
36.5187
18.9313
8.50641
43.9431
13.5545
38.4372
82.7693
44.1082
14.2739
60.5549
23.4387
0
0
0
20.7498
0
0
0
0
0
0
0
0
0
0
0
0
27.5822
24.158
43.1341
57.6021
38.4846
95.9631
55.9549
39.5852
50.5194
56.2566
113.292
36.862
15.0005
43.3661
20.511
33.6592
42.61
28.0996
24.5371
60.3718
38.0898
9.88637
18.9637
32.6916
30.4594
49.4646
13.2312
53.0625
11.715
49.0341
34.6634
92.948
20.7499
34.5243
34.7873
78.5576
28.4978
12.7844
0
47.6604
28.9787
13.1934
0
0
13.7325
0
0
0
0
0
0
0
0
0
0
0
0
0
0
0
114.986
42.2472
44.6112
61.8229
59.9442
85.4052
55.3268
72.4081
95.4731
41.12
46.6345
62.525
27.7917
50.6453
61.2012
21.985
23.0111
89.7592
23.2692
45.4234
50.5784
11.6341
31.7008
21.5039
18.1412
17.8711
24.8162
39.9647
45.9517
28.6349
49.6532
38.3794
8.34906
74.1806
12.3992
21.5227
34.0698
65.9786
33.8891
13.3757
71.6827
0
21.3473
41.3362
78.5327
16.0322
23.7087
0
0
0
0
0
0
0
0
0
0
0
0
0
44.5124
26.007
44.9603
110.754
53.3527
67.068
24.3011
81.6161
50.0492
44.7414
18.9399
51.0989
75.5034
53.6546
13.1412
12.0322
48.1339
30.4203
34.9404
21.2639
53.6908
27.1538
31.3795
70.9086
22.5055
28.576
33.1806
33.2344
18.4108
86.7609
65.7639
34.394
38.2234
46.8773
23.7869
21.8144
39.9324
32.0995
9.55602
72.7489
10.1118
39.2325
32.1806
45.7726
18.3416
44.6425
27.9694
0
0
0
0
0
0
0
0
0
0
0
0
0
8.73764
58.5502
31.6285
51.6635
72.9829
15.126
111.676
37.0742
107.175
84.655
67.5535
60.0199
49.044
47.8022
91.9824
56.1329
48.6028
26.8559
69.2262
22.7109
46.5863
35.5865
66.1338
0
21.9659
21.542
41.0924
38.7074
0
70.4292
0.757466
21.721
39.2869
60.9862
51.7597
35.4866
65.6924
31.0465
39.6646
26.7651
46.5109
32.7134
55.1543
15.0847
31.4435
0
0
16.9953
0
0
0
0
0
0
0
0
0
0
0
0
30.9893
21.7941
24.2731
110.098
41.8752
28.4358
16.5338
61.2237
39.9414
73.2443
64.8102
56.3953
74.9787
64.1844
42.1491
12.4941
43.8472
36.7275
37.3403
29.5751
80.4018
76.4981
16.1123
13.8081
51.6671
18.6669
15.9762
42.6511
48.4793
16.7361
40.8208
39.4009
9.84905
44.7797
17.7497
28.7261
48.9935
43.4176
31.8391
20.9631
59.4766
15.6816
23.7884
52.0164
1.22009
14.3138
0.362941
15.6979
0
0
0
0
0
0
0
0
0
0
0
0
108.033
42.633
84.8509
21.5978
84.2725
43.1067
47.8793
97.3835
21.0529
68.9682
61.194
65.2139
30.336
50.872
0
42.8909
92.4022
41.2718
22.4265
109.705
55.5195
51.6425
56.5543
19.0997
51.3866
23.9732
35.1429
28.6784
60.0798
53.9986
13.3528
38.9981
41.7537
45.9127
37.1809
20.9177
55.0174
32.7022
39.8665
30.8089
85.1784
0
0
22.9159
29.6933
14.6244
22.4601
15.2646
0
0
0
0
0
0
0
0
0
0
0
0
50.754
69.0698
42.3823
64.1527
23.8701
59.9111
40.5083
92.7892
16.17
95.9792
51.0999
42.906
7.54891
57.0576
39.111
35.1025
72.334
22.9886
31.9518
47.297
46.5023
43.1541
108.134
41.2857
50.5875
46.4818
40.3761
8.37254
17.4877
28.8751
11.9256
51.017
35.611
20.2295
30.3823
33.2088
61.3991
25.2402
40.2329
0
34.6469
0
24.3735
30.5364
39.1915
30.2207
29.1908
0
0
0
0
0
0
0
0
0
0
3.63362
0
3.95698
5.15674
42.3811
79.1966
69.6199
49.9168
44.1939
34.0092
87.5355
39.8552
91.2304
49.9424
74.3139
86.4753
12.7189
34.8782
67.0877
45.4048
42.5014
22.7279
29.9821
67.6855
39.5658
49.6768
59.9937
9.02562
9.98593
48.6663
12.3618
25.3004
78.2669
56.425
22.8612
53.9468
4.40232
44.5056
52.2912
49.6002
20.6315
26.557
39.0523
41.5659
76.4359
33.93
25.2576
32.9935
35.2139
0
0
21.6938
0
0
0
0
0
0
0
0
0
0
0
82.5507
60.5933
33.3354
63.1824
22.403
21.9886
51.1823
35.8565
61.6207
72.1078
32.9104
33.4601
17.5751
29.2541
35.6018
29.9549
22.5107
42.6834
29.685
52.4076
20.5822
40.7894
89.8731
4.53572
25.3778
16.3043
21.1579
27.0798
66.5884
72.6012
54.8946
11.0849
27.4898
43.7146
67.3715
79.5504
26.3093
55.5783
21.734
18.7951
17.7596
58.9565
51.4473
23.5952
16.1742
33.4068
0
0
0
0
0
0
0
0
0
0
0
0
0
0
72.872
21.9157
37.0334
55.4333
80.0197
95.0604
57.5364
35.3155
41.2989
40.3512
68.5256
58.1325
35.9366
89.5523
79.2258
31.9816
47.5059
31.9752
48.2816
57.2336
75.2305
15.1502
72.7262
27.2972
15.4251
36.8023
7.18511
57.7703
12.49
43.5342
21.3631
25.1271
6.42758
68.2167
73.0268
25.4975
26.938
40.9873
25.8536
9.46388
46.9288
38.7318
11.8863
15.1859
26.3812
12.2025
14.976
21.3649
0
0
0
0
0
0
0
0
0
0
0
0
71.1046
44.2133
40.2003
28.663
81.825
97.5789
34.3742
38.4323
82.7017
45.7108
25.3472
33.9769
52.8457
21.9591
14.3765
42.8268
14.9329
61.8069
24.7554
15.3686
24.7857
13.1914
8.62553
21.6759
15.867
56.7001
44.2931
45.1688
24.9216
31.959
0
22.2489
26.2191
23.8208
70.6411
24.0101
82.2468
34.0207
76.286
0
25.4238
24.1264
12.3734
14.0219
16.1701
31.825
11.2342
17.129
0
0
0
0
0
0
0
0
0
0
0
0
30.5563
65.1886
34.5684
55.385
72.0385
35.7407
67.3977
76.6368
49.5773
45.3766
71.4917
32.8477
47.46
87.502
46.2187
40.246
66.408
4.05113
27.1933
16.6343
1.24442
13.7458
21.5791
0
12.5031
19.2553
32.9584
37.7508
64.2986
52.8485
18.0475
64.1993
7.3345
13.3575
25.7664
18.4652
21.6177
20.0817
62.7661
50.8943
41.0911
21.5598
47.7874
0
26.1208
0
22.8963
0
0
0
0
0
0
0
0
0
0
0
0
0
76.3286
69.7198
41.5739
88.4591
49.1388
83.7895
47.9826
60.2707
56.776
11.9377
37.3178
38.1734
64.6609
49.99
48.3329
14.0006
54.9577
63.1433
48.2459
36.5204
31.0282
41.577
46.5564
15.8244
47.2276
14.1395
44.8561
28.2535
8.46144
53.3952
21.1139
18.5584
63.7634
64.0496
36.624
17.6208
45.3692
14.5585
61.8528
49.6354
2.07113
28.9734
14.8468
47.6088
32.9238
29.766
0
0
0
0
0
0
0
0
0
0
0
0
0
0
39.7995
43.1109
14.9133
86.4765
43.1733
34.1101
56.3913
63.2143
65.715
74.6718
60.7404
66.508
61.8568
23.8696
52.2553
24.151
28.005
31.605
102.216
18.3182
12.9625
43.9177
31.7585
29.1644
39.8501
0
0
25.8807
20.7067
8.67161
47.3677
20.5765
49.9977
15.4089
25.6801
60.0143
48.2693
26.7461
84.7645
25.8492
12.8527
23.9583
12.5098
45.04
15.2528
13.1508
0
21.2935
0
16.6176
0
0
0
0
0
0
0
0
0
0
109.297
26.4736
67.8938
35.664
42.7027
37.6944
72.584
98.1797
85.0155
50.2006
31.1797
27.4188
94.7386
48.7595
21.7342
16.4168
17.29
38.3516
61.0757
9.19145
93.5413
36.8496
26.6701
75.1996
13.0357
53.3622
27.9232
50.6309
64.7752
16.8014
28.7987
19.7987
33.5976
20.2838
20.6354
33.1991
4.81075
18.4439
119.519
0
12.3423
11.1427
36.4592
19.6073
15.6769
0
14.013
0
15.7659
0
0
0
0
0
0
0
0
0
0
0
70.8368
81.815
83.8949
68.3859
22.5793
44.0335
66.3062
70.6106
35.7711
46.0221
30.0133
85.3639
60.2226
0
67.8427
28.1387
33.7944
42.2299
27.2715
13.5898
28.9008
10.6945
32.6383
36.3625
42.5467
28.1105
40.5906
62.6167
60.0753
10.1486
2.4499
39.1065
27.5038
0
45.1237
12.6776
51.3126
17.7218
71.7935
38.7974
0
11.2198
10.9046
26.7802
19.0709
35.8482
13.262
0
0
0
0
0
0
0
0
0
0
0
0
0
41.9384
88.6627
79.0233
108.619
48.2026
39.2812
100.75
29.8646
103.712
71.2794
64.301
58.2131
63.0746
82.2883
77.5317
64.5089
45.0265
38.5443
54.9768
0
64.1507
24.0248
8.21977
35.0852
8.84741
24.914
47.6366
56.6842
26.9591
19.6051
44.6082
29.7351
36.9097
19.4277
65.998
22.6914
18.6734
9.44862
9.95414
27.6652
11.5358
13.0177
33.1624
20.5287
32.2881
0
5.54271
0
0
0
0
0
0
0
0
0
0
0
0
0
38.4568
39.8394
40.6318
52.5781
62.2831
48.3125
64.344
62.0403
31.8088
55.4702
65.5273
59.0251
58.1528
31.6231
39.2328
42.2181
28.7118
6.19493
19.1234
25.431
10.2334
51.7297
30.4172
35.5961
42.4421
34.7449
37.1137
65.4414
7.55636
19.8322
43.3836
23.4935
56.0295
6.26474
28.6412
0
0
107.228
15.3007
21.2645
60.623
60.7467
0
39.8867
15.5055
0
19.5393
0
0
0
0
0
0
0
0
0
0
0
0
0
20.3222
32.1153
47.0242
44.0402
12.6871
86.7468
49.275
34.7774
63.0696
72.0648
27.0063
53.2992
52.1371
15.9652
27.5411
59.2709
67.3763
76.6511
38.7652
31.2224
45.02
9.34459
17.2889
21.1228
7.53627
0
0
41.7476
16.9531
50.9434
17.3053
73.3273
19.6768
12.3679
48.0917
41.8417
47.4071
37.2135
57.7505
32.2092
52.8626
39.0624
25.9182
0
40.173
5.82846
4.85889
17.2038
20.5197
0
0
0
0
0
0
0
0
0
0
0
44.5865
26.0456
47.912
97.6863
58.8439
36.3744
32.7119
93.7647
52.9885
23.677
61.3497
15.4893
61.0558
56.2178
42.3749
30.6124
52.0449
46.9295
38.4636
50.2865
10.8082
22.1875
12.486
27.1475
40.3985
28.9822
0
51.1334
28.8319
40.036
30.1944
28.8804
43.3853
53.3671
87.6285
56.318
49.7111
0
60.6698
10.7683
27.8853
0
31.0213
0
12.5088
29.0239
21.4624
15.4134
19.9122
0
0
0
0
0
0
0
0
0
0
0
38.2092
35.7165
23.2624
43.9587
93.0013
22.1465
79.7573
59.822
60.6567
64.0104
80.2122
39.6017
80.279
80.1082
44.9288
32.831
72.4557
10.5923
32.0968
43.4397
43.8115
29.8015
0
31.8453
41.5663
22.245
35.9529
34.38
0
37.7328
34.4663
24.2346
24.4914
28.955
18.8758
25.0059
61.6162
108.901
58.3362
30.4552
31.8407
11.4379
0
31.2074
13.0339
0
0
0
0
0
0
0
0
0
0
0
0
0
0
0
15.2228
45.1823
48.699
67.8048
53.5871
38.8702
57.7505
100.985
60.5901
44.9946
52.3359
58.9259
5.67547
68.0612
60.8145
41.2898
14.9771
3.9444
66.1157
19.7989
48.2599
21.0228
17.92
1.26172
67.0423
5.9312
19.6398
22.2659
38.9527
4.0157
73.4346
30.3386
22.6487
20.0721
17.1534
35.2347
22.1241
27.6201
13.4505
50.3253
29.5257
11.0058
19.9364
2.35563
49.0011
42.2947
16.2508
0
15.7353
0
0
0
0
0
0
0
0
0
0
0
53.475
50.0607
81.3515
56.385
84.973
48.2492
48.312
106.821
91.8208
129.8
28.9332
81.0602
94.8587
56.7662
65.1988
68.1922
35.4631
80.0968
50.1506
129.053
81.3773
29.5428
54.6312
8.57158
62.9099
9.15257
0
0
38.3865
21.6687
36.928
48.7623
27.9452
13.8
24.5937
66.3997
25.0723
64.0496
15.3973
53.4948
34.626
56.1263
12.5482
38.1642
28.6249
18.3303
0
0
0
0
0
0
0
0
0
0
0
0
0
0
48.3983
57.6281
17.2737
49.5243
42.8248
68.0086
98.0814
96.2584
80.9279
67.647
81.4068
63.231
21.6058
80.2242
53.5625
47.2944
9.68157
57.9359
11.2531
16.3683
22.5657
51.3666
30.4886
80.7681
37.954
38.8975
56.8146
25.5562
35.669
11.2731
47.7448
53.3063
0
61.1125
25.9676
20.9603
19.0608
47.6072
71.8192
27.0208
42.536
17.4285
64.662
54.6425
20.3479
0
16.1153
0
0
0
0
0
0
0
0
0
0
0
0
0
37.1681
72.0925
68.8787
28.8356
66.388
49.0217
71.0227
58.8077
122.213
80.7214
43.1877
75.8371
17.9212
46.9747
53.9905
34.3767
45.6285
65.3429
28.3612
33.5694
45.3503
27.5355
17.9766
33.3591
16.2799
14.1079
46.1783
50.7199
76.6552
58.6157
44.3157
37.8247
34.0633
47.072
40.1758
61.2799
28.3139
9.87138
54.6258
49.7666
53.1446
0
45.9072
8.40124
36.1746
15.4078
15.3806
0
0
16.1429
0
0
0
0
0
0
0
0
0
0
30.9769
50.4917
4.88553
98.3006
49.6412
25.7276
47.4805
68.4627
25.6025
57.6891
34.1949
58.9772
57.379
25.6388
23.8288
28.4163
51.6087
20.5375
37.4924
45.6996
10.4209
34.0919
23.2263
24.001
89.9427
67.6357
0
41.6452
17.3536
16.1239
30.5805
17.3222
61.7723
25.3443
21.2058
34.0658
41.9346
34.4744
55.9878
69.3791
0
0
46.8341
61.274
0
47.0513
13.9752
19.8531
20.6386
0
0
0
0
0
0
0
0
0
0
0
34.9731
32.5276
57.9204
15.1525
51.1024
38.7767
43.8399
67.1018
25.555
85.0961
11.1439
81.6414
28.4714
79.6454
56.5339
0
0
19.3198
12.1285
16.627
74.9879
37.2646
16.6281
77.6375
10.2487
35.3466
46.3741
8.58769
42.3315
21.2111
58.7653
14.4878
42.0177
88.1543
65.5917
0
45.5412
54.1714
9.34044
46.8263
16.2738
0
3.59198
0
0
0
0
26.0839
0
0
0
0
0
0
0
0
0
0
0
0
46.3137
55.4874
26.954
0
49.7123
43.8061
16.9864
54.4296
66.7573
70.3233
64.4375
53.2591
44.4119
57.2339
47.6598
11.1613
10.8652
67.6389
42.2564
35.8939
37.5355
34.3896
77.0936
21.7331
10.878
27.4362
49.4795
34.6911
32.9656
28.7641
28.4859
27.448
17.8601
44.864
56.7422
37.5545
50.7882
7.02817
0
108.339
33.3458
50.6246
7.49073
15.4364
0
0
20.5737
16.9528
0
0
0
0
0
0
0
0
0.307461
0
0
0
43.6631
58.564
46.3661
34.0366
36.1116
39.1519
60.3357
62.3013
52.0763
65.5791
57.5555
70.8024
75.0863
62.2486
12.7506
25.5619
80.9019
98.4824
43.0993
21.0126
55.4831
14.6313
7.54996
29.4865
55.7623
3.69079
51.6751
16.5325
50.9382
52.4698
51.7673
36.3339
31.6677
34.8126
62.3971
45.9794
33.4605
55.6885
0
9.90104
63.1985
11.5229
22.0237
29.4947
58.3555
27.5361
1.05545
0
0
0
0
0
0
0
0
0
4.35158
0
0
0
31.7026
74.0456
36.2059
56.3985
50.8338
75.3121
57.3298
65.7952
70.5927
45.2879
74.6118
41.8323
36.8671
21.4136
70.1055
52.655
40.4228
75.6357
41.267
39.6018
0.218948
26.4973
32.3532
19.5349
23.3854
42.8416
13.9262
41.0572
18.4406
28.0301
33.9847
44.9107
61.6255
54.0262
78.2901
19.4542
19.6577
48.3268
41.6632
30.7492
50.8103
30.3645
47.8742
0
30.3817
15.5325
49.6773
0
0
0
0
0
0
0
0
0
0
0
0
0
60.4583
79.1302
0
58.8232
67.1463
62.1596
0
108.685
68.2872
9.28458
90.5097
81.6474
95.4773
64.7857
88.246
36.5515
27.4645
45.2902
39.8348
0
28.3135
48.5385
25.1584
38.6143
46.5247
40.5419
2.97309
44.1539
32.9398
56.4973
9.88586
47.8866
64.7653
18.4908
55.5278
60.5636
26.7272
18.7364
14.248
9.54822
0
34.2847
54.953
13.4464
20.6872
25.1552
23.2678
0
0
0
0
0
0
0
0
0
0
0
0
0
52.1273
26.5113
71.2952
68.0498
62.3105
49.9329
52.6514
79.5684
65.1036
72.0962
72.5987
110.323
56.063
19.2924
53.0847
44.2604
23.0025
16.0799
28.9344
8.68803
26.0861
21.1584
28.5498
51.5926
31.1627
6.36988
49.1869
10.9566
38.2043
15.2951
36.2246
37.0956
34.0763
61.5592
45.7117
20.7104
56.8823
53.6163
5.25989
12.4899
0
65.8345
0
41.3849
45.3336
17.0515
0
0
0
0
44.0639
0
0
0
0
0
0
0
0
0
63.9021
74.7931
48.1018
25.3966
85.465
115.266
87.2514
44.2768
34.6603
34.2921
100.097
85.4968
18.1346
67.8264
29.8065
36.2695
30.4515
5.4581
32.8654
32.8901
25.6544
53.9454
20.6509
34.0796
97.5284
11.4824
0
15.4546
68.8263
33.3772
11.9471
44.0101
2.50435
65.5303
30.59
54.262
0
8.81682
48.1679
35.3327
0
71.948
12.6079
44.5208
33.3436
0
0
0
0
0
37.0379
0
0
0
0
0
0
0
0
0
29.0438
26.8941
57.3649
64.8664
49.071
72.5292
53.4211
39.0175
70.1192
87.0372
61.4896
99.9581
53.8971
52.8154
48.7895
76.7695
60.3683
37.6577
28.8774
57.4188
20.1162
36.7708
21.5741
28.6262
8.47972
0
23.069
60.6602
33.9543
68.4681
54.4887
45.1159
43.9808
54.6491
22.4044
25.1523
28.3178
54.795
32.5602
25.5032
34.0228
37.9886
20.8167
13.1509
0
0
0
0
0
0
0
0
0
0
0
0
0
0
0
0
40.302
18.0366
83.3506
19.9409
43.3816
61.3886
51.442
70.9724
57.4655
56.6329
68.1541
53.4479
22.6561
79.3107
18.569
73.9987
84.4046
15.5091