/*--------------------------------*- C++ -*----------------------------------*\
| =========                 |                                                 |
| \\      /  F ield         | OpenFOAM: The Open Source CFD Toolbox           |
|  \\    /   O peration     | Version:  v1906                                 |
|   \\  /    A nd           | Web:      www.OpenFOAM.com                      |
|    \\/     M anipulation  |                                                 |
\*---------------------------------------------------------------------------*/
FoamFile
{
    version     2.0;
    format      ascii;
    class       volScalarField::Internal;
    location    "2.83";
    object      coalCloud1:radAreaP;
}
// * * * * * * * * * * * * * * * * * * * * * * * * * * * * * * * * * * * * * //

dimensions      [0 2 0 0 0 0 0];


value           nonuniform List<scalar> 
26400
(
1.02086e-12
1.78921e-12
2.26491e-12
7.59748e-13
2.94493e-12
1.34691e-12
2.0203e-12
1.28029e-12
7.13408e-13
2.70785e-12
1.27123e-12
2.74314e-12
3.83827e-13
4.1957e-13
1.27389e-12
2.20002e-12
8.33585e-13
1.33095e-12
3.97204e-12
1.76398e-12
7.42344e-13
2.94649e-13
1.22891e-12
3.1155e-12
3.60224e-13
1.37679e-12
1.62316e-12
7.98338e-13
1.24825e-12
5.00547e-13
9.37359e-13
1.29089e-12
2.24599e-12
8.75311e-13
4.57932e-13
2.84645e-12
1.14683e-12
1.85342e-12
0
0
0
1.55686e-12
0
2.65411e-13
0
0
0
0
7.96326e-13
0
0
0
0
0
0
0
0
0
0
0
2.00513e-12
2.81441e-12
3.44018e-12
2.2468e-12
7.48223e-13
1.37336e-12
2.83087e-12
9.56724e-13
9.14764e-13
7.28469e-13
1.89084e-12
1.27526e-12
1.58191e-12
7.74636e-13
1.14747e-12
1.08152e-13
7.71963e-13
3.35662e-13
6.09677e-13
2.21787e-12
1.72165e-12
1.83366e-13
2.02293e-12
7.28664e-13
3.37223e-13
0
1.69113e-12
9.91975e-14
5.47132e-13
1.2382e-13
1.63092e-12
1.46234e-12
0
7.40753e-13
1.35773e-12
0
0
2.69793e-12
1.26462e-12
1.93025e-12
8.19165e-13
0
1.73075e-14
1.65403e-12
0
0
0
1.22077e-12
5.03343e-13
0
0
0
0
0
0
0
0
0
0
0
1.25177e-12
6.76553e-13
1.56944e-12
3.51306e-12
0
2.41174e-12
1.83431e-12
1.29008e-12
9.94945e-13
2.42315e-12
1.30721e-12
0
1.4064e-12
2.67476e-12
3.29794e-12
2.54362e-12
1.64249e-12
1.45786e-12
1.51576e-12
4.26087e-13
5.68237e-13
6.47403e-13
0
1.15068e-12
1.74687e-12
9.1316e-13
1.44188e-12
5.98633e-13
1.48402e-12
6.99357e-13
1.63033e-13
5.25949e-13
1.04201e-12
0
0
1.54418e-12
2.75103e-12
1.94515e-12
8.00214e-13
1.55706e-12
5.45108e-13
1.46264e-12
1.45421e-12
7.72783e-13
1.19636e-12
8.31882e-13
0
0
0
0
0
0
0
0
0
0
0
0
0
0
5.80814e-13
6.57837e-13
1.56843e-12
7.07116e-13
1.74986e-12
2.12101e-12
1.93603e-12
3.26476e-12
7.50532e-13
1.87338e-12
2.13464e-12
4.24752e-13
1.13569e-12
1.71993e-12
5.77705e-13
1.25275e-12
2.47927e-13
2.73563e-12
0
1.18336e-12
3.68581e-13
2.10115e-12
4.60657e-13
7.28684e-13
1.74425e-12
0
5.30937e-13
5.41423e-13
1.42043e-12
1.18669e-12
2.89491e-13
0
1.31486e-12
1.18377e-12
1.9411e-12
5.80016e-13
1.44853e-12
4.65728e-13
0
1.26615e-12
6.08252e-13
2.60025e-13
1.70561e-12
2.39102e-12
0
2.38493e-13
1.77683e-12
8.5976e-13
0
0
0
0
0
0
0
0
0
0
0
0
2.22613e-12
1.28619e-12
1.0156e-12
2.08807e-12
1.10357e-12
1.92371e-12
1.61566e-12
3.40479e-12
4.84931e-13
1.30204e-12
2.11355e-12
4.1501e-13
0
1.94129e-12
2.34967e-12
2.31931e-12
4.5857e-13
3.72937e-13
3.08848e-12
4.58485e-13
1.29301e-12
5.04334e-13
1.84925e-12
1.62849e-12
7.92649e-13
2.34118e-12
2.11449e-12
3.07576e-13
1.50364e-12
1.35006e-12
2.63567e-12
9.3384e-13
1.53702e-12
1.75735e-12
2.06938e-13
2.00725e-12
5.8581e-13
0
1.39522e-12
0
7.27108e-13
5.09096e-13
1.78894e-12
3.08385e-12
4.21709e-13
8.02161e-13
0
1.79435e-13
0
0
0
0
0
0
0
0
0
0
0
0
2.11567e-12
3.65432e-12
9.57649e-13
1.10328e-12
3.06318e-12
2.95097e-12
2.73909e-12
3.36979e-12
3.85367e-13
5.42764e-13
2.15341e-12
1.24617e-12
0
1.33062e-12
1.2839e-12
7.25025e-13
0
0
2.95874e-13
1.98197e-12
2.38449e-12
3.06217e-12
7.94305e-13
9.22803e-13
0
0
1.43929e-12
0
2.50715e-13
1.88867e-12
5.5719e-13
5.61867e-13
2.73822e-12
0
4.72673e-13
2.89814e-12
1.33317e-13
9.9756e-13
7.53813e-13
9.9459e-13
1.65143e-13
2.19779e-12
1.14002e-12
0
1.65197e-12
1.84555e-12
0
0
0
0
0
0
0
0
0
0
0
0
0
0
2.09457e-12
2.84603e-12
1.25994e-12
4.43289e-13
1.58689e-13
2.31449e-12
1.04347e-12
2.06227e-12
1.6474e-12
1.16711e-12
1.12062e-12
3.60808e-12
2.31512e-12
9.02748e-13
1.187e-12
5.41571e-13
1.32296e-12
4.24853e-13
3.71399e-13
1.50806e-12
4.92018e-13
2.66036e-12
0
0
1.96168e-12
2.10992e-12
1.33972e-12
0
4.77619e-13
4.33294e-13
1.35604e-12
6.58608e-13
1.04681e-12
8.53482e-13
1.78694e-12
2.42662e-12
6.70574e-13
0
1.17124e-13
9.77322e-13
7.09575e-13
0
8.88862e-13
2.25803e-13
1.66867e-12
0
0
0
2.10845e-12
0
0
0
0
0
0
0
0
0
0
0
7.96777e-13
2.33363e-12
2.46513e-12
1.9418e-12
1.28636e-12
1.81621e-12
3.34165e-12
2.0521e-12
1.26854e-12
1.51628e-12
1.41177e-12
1.15013e-12
1.10556e-12
2.49677e-12
2.51959e-12
1.07405e-12
1.64757e-12
3.96803e-13
3.39439e-13
9.58043e-13
1.95512e-12
0
2.84377e-13
2.59834e-12
1.07843e-13
9.83415e-13
4.41047e-12
1.1348e-12
0
1.63813e-13
7.61894e-14
1.45188e-12
3.35125e-12
1.93335e-12
1.64278e-12
6.02615e-13
2.63512e-12
2.11335e-12
1.11756e-12
3.72795e-12
4.66834e-13
8.25998e-13
1.51325e-12
6.24196e-13
3.60195e-13
0
0
0
1.27959e-13
0
0
0
0
0
0
0
0
0
0
0
4.69927e-13
1.34382e-12
2.67771e-12
1.91203e-12
6.86429e-13
1.78958e-12
1.16282e-12
8.02687e-13
5.03867e-13
1.47708e-12
1.47089e-12
2.45364e-12
4.1213e-13
5.25044e-12
2.96718e-12
2.69602e-12
2.49399e-12
1.63098e-12
3.55212e-14
7.86054e-13
0
1.57863e-12
6.00186e-13
2.75995e-12
0
1.40439e-12
0
1.43347e-12
7.22852e-13
5.30978e-13
2.02917e-12
2.25164e-13
1.52606e-12
2.99345e-12
0
3.66922e-13
0
6.98712e-13
6.57833e-13
1.94791e-12
8.22641e-13
1.27008e-12
1.97141e-12
8.44163e-13
6.33575e-13
0
0
0
1.62843e-12
0
0
0
0
0
0
0
0
0
0
0
1.18678e-12
1.91378e-12
1.61499e-12
1.83634e-14
4.01666e-13
1.60698e-12
2.35711e-12
4.99548e-12
1.57891e-12
1.37305e-13
2.46722e-12
9.45788e-13
1.11179e-12
1.79051e-12
2.22079e-12
8.66834e-13
1.05152e-12
1.84856e-12
8.7229e-13
1.21944e-12
2.5109e-14
1.19172e-13
2.37913e-12
8.35656e-13
1.71328e-12
0
3.91942e-13
2.20747e-12
1.147e-12
2.5735e-12
5.0984e-13
1.5008e-12
7.213e-13
2.21585e-12
1.45441e-12
2.10908e-12
1.33326e-12
5.82124e-13
0
3.53597e-13
0
7.64244e-13
5.54916e-13
8.43219e-13
2.65489e-12
1.17376e-12
2.35271e-12
1.16232e-12
0
0
0
0
0
0
0
0
0
0
0
0
1.65021e-12
2.20108e-12
2.47714e-13
6.83686e-13
2.84942e-12
7.24496e-13
3.53419e-12
1.54819e-12
1.48176e-12
1.23476e-12
9.86539e-13
1.23152e-12
1.56203e-12
1.69496e-12
1.27792e-12
0
4.19563e-13
1.31016e-12
1.03991e-12
1.4654e-12
1.23565e-12
6.13431e-13
1.80935e-12
1.43383e-12
2.01543e-13
1.77401e-12
5.23193e-13
1.05281e-12
7.67636e-13
2.15e-12
7.19485e-13
3.90504e-13
0
8.08976e-14
5.43964e-13
0
8.01443e-13
0
7.96492e-13
1.67727e-12
1.42633e-12
0
1.89296e-12
0
0
1.10931e-12
6.93026e-13
1.09174e-12
0
0
0
0
0
0
0
0
0
0
0
0
2.25263e-12
1.20425e-12
2.0546e-12
1.15299e-12
1.31911e-12
7.62397e-13
6.76512e-13
0
3.62467e-12
2.32222e-12
1.57437e-12
2.17403e-13
1.87455e-12
2.5862e-12
1.59056e-12
1.05807e-12
4.67576e-13
2.19395e-12
9.70816e-13
1.23638e-12
3.39025e-13
1.75762e-12
2.40282e-12
6.82768e-13
0
1.15931e-12
1.99633e-12
1.76516e-12
2.46253e-12
1.21245e-12
4.25181e-13
2.18102e-12
4.72563e-13
1.43393e-12
1.80473e-12
1.89086e-13
1.35498e-12
5.76456e-13
1.30541e-12
6.84251e-14
9.45901e-13
0
7.25042e-13
0
0
9.75077e-13
4.18298e-13
0
0
0
1.24727e-12
0
0
0
0
0
0
0
0
0
1.53969e-12
1.13534e-12
2.4687e-12
4.23783e-12
1.27683e-12
2.22929e-12
1.73106e-12
4.56261e-13
1.80833e-12
5.66535e-13
3.35e-12
1.63503e-13
0
1.54628e-12
8.52733e-13
1.02928e-12
1.52282e-12
4.19196e-13
3.18098e-12
7.75344e-13
3.07024e-13
3.45875e-13
1.54836e-12
0
4.85747e-13
1.03904e-12
1.62971e-12
6.35392e-13
1.97558e-12
1.66763e-12
2.25267e-14
1.15232e-12
1.34531e-12
2.55029e-13
2.19838e-12
5.17033e-13
1.6278e-12
0
2.79325e-12
5.74152e-13
1.5477e-12
7.82219e-13
0
7.81736e-13
0
0
5.43297e-13
0
0
0
0
0
0
0
0
0
0
0
0
0
2.66254e-12
2.17779e-12
1.34643e-12
1.8319e-12
2.85123e-12
3.00758e-12
6.87966e-13
8.31774e-13
1.13111e-12
2.94446e-12
1.55275e-12
4.09875e-13
2.2933e-12
1.73856e-12
4.87783e-13
6.46293e-13
3.72482e-13
4.3632e-13
1.85426e-12
2.298e-12
1.22258e-12
8.14637e-13
6.64191e-13
5.41374e-13
4.61911e-13
1.12926e-12
5.00004e-14
4.533e-13
0
0
5.74695e-13
1.38175e-13
7.84672e-13
8.40812e-13
8.78064e-13
1.63339e-12
2.18328e-12
1.10173e-12
1.3103e-12
3.65727e-13
0
0
3.58608e-12
0
8.92284e-13
0
0
0
0
0
0
0
0
0
0
0
0
0
0
0
1.76645e-12
2.01935e-12
9.92082e-13
9.12416e-13
1.25163e-12
2.37285e-12
3.60193e-12
1.44797e-12
2.42991e-12
1.30259e-12
2.91518e-12
1.58026e-12
1.12676e-13
3.35757e-12
4.61894e-13
1.9057e-12
1.36413e-12
1.04107e-12
0
1.61928e-14
1.42802e-12
2.45987e-12
7.25955e-13
1.26497e-12
1.47896e-12
1.20898e-12
7.8092e-13
2.32576e-12
1.89774e-12
1.31625e-12
5.79829e-13
1.91712e-12
0
5.69557e-13
1.69148e-12
2.11052e-12
2.59627e-12
9.93203e-13
1.19083e-12
1.36089e-12
1.61672e-12
2.15056e-12
2.77786e-12
1.02101e-12
0
0
0
0
0
0
0
0
0
0
0
0
0
0
0
0
3.41614e-12
2.20343e-12
9.59393e-13
4.74267e-13
5.82094e-13
1.49886e-12
2.66037e-12
3.53286e-13
3.741e-12
0
2.3836e-12
3.36695e-12
9.07447e-13
1.17432e-12
5.229e-13
2.33338e-12
3.728e-12
1.37629e-12
1.24796e-12
3.16777e-12
9.20217e-13
1.75142e-12
1.61364e-12
1.33141e-13
5.54401e-13
5.395e-13
1.22359e-12
1.51253e-12
6.11231e-13
1.84164e-13
8.85573e-14
1.41625e-12
5.70854e-13
5.77921e-13
5.11225e-13
1.05628e-12
0
1.5781e-12
5.60953e-13
1.54172e-12
0
1.45924e-12
4.31686e-14
0
0
0
0
0
0
0
0
0
0
0
0
0
0
0
0
0
1.08288e-12
4.89387e-13
3.4411e-13
3.63866e-12
1.22166e-12
2.70316e-13
1.33764e-12
1.09469e-12
2.31273e-12
1.99712e-12
2.32945e-12
2.3675e-12
1.30641e-12
1.57064e-12
4.54097e-13
5.58122e-13
0
1.68643e-12
5.66932e-13
2.04169e-14
1.07619e-12
1.03103e-12
2.43626e-12
8.11966e-13
9.64369e-13
1.17028e-12
2.52915e-12
2.12331e-12
0
7.18396e-13
8.14419e-13
5.15768e-13
1.35146e-12
1.12373e-12
4.09344e-13
9.61392e-13
7.30907e-13
2.41757e-13
1.42462e-12
7.82383e-13
0
6.72427e-13
1.58697e-12
0
0
4.08443e-13
0
1.53212e-13
9.11107e-13
0
0
0
0
0
0
0
0
0
0
0
1.40605e-12
1.32487e-12
6.43723e-13
2.13357e-12
1.46408e-12
1.71721e-12
2.13948e-12
1.81515e-12
2.31034e-12
2.75683e-12
7.69697e-13
1.44513e-12
1.37997e-12
1.5386e-12
2.84244e-12
3.16213e-12
5.72737e-13
2.4615e-12
2.07203e-12
1.85928e-12
1.15285e-12
6.06528e-13
2.96671e-13
0
7.89817e-13
1.06677e-12
1.34529e-12
1.05834e-12
1.40772e-12
1.39677e-12
5.3436e-13
1.03387e-12
5.35634e-13
2.02325e-12
6.07065e-13
2.88217e-12
5.56148e-13
1.18594e-12
4.37164e-13
1.4216e-12
3.21804e-13
0
3.92207e-13
3.07319e-12
0
4.42176e-12
0
0
0
2.3483e-12
3.19005e-13
0
0
0
0
0
0
0
0
0
1.50215e-12
5.66186e-13
2.44637e-12
1.24972e-12
1.79761e-12
1.17482e-12
3.19242e-12
1.16692e-12
2.15926e-12
1.93164e-12
1.31378e-12
3.45711e-12
1.28774e-14
1.75508e-12
1.42703e-12
9.66994e-13
1.00952e-12
2.88169e-12
1.25162e-12
0
7.55314e-13
2.65003e-13
3.68771e-12
7.17128e-13
1.41535e-12
0
1.75562e-13
1.02806e-12
5.52166e-13
2.23051e-13
9.79408e-13
8.71203e-13
1.78888e-12
9.70114e-13
6.34748e-13
1.24059e-12
5.52589e-13
1.54485e-12
7.66867e-13
1.07367e-12
2.2621e-13
6.90238e-13
2.52258e-13
7.77638e-13
5.97478e-14
0
0
0
0
0
1.13788e-12
0
0
0
0
0
0
0
0
0
1.36196e-12
2.18819e-12
9.65061e-13
6.13714e-13
8.83762e-13
2.03353e-12
2.3825e-12
1.18608e-12
2.34704e-12
8.81869e-13
3.43381e-12
2.56369e-12
1.41482e-12
3.54523e-13
2.05859e-12
1.30617e-12
2.18358e-12
3.14541e-14
2.19525e-12
4.67827e-13
2.16517e-12
2.37942e-12
1.90699e-12
1.5795e-13
7.49304e-13
7.89364e-13
0
1.21719e-12
3.38042e-13
4.47989e-13
1.17281e-12
1.44845e-12
0
0
8.72348e-13
1.05448e-12
1.86374e-12
1.75646e-12
4.86334e-14
2.45298e-12
1.39016e-12
0
0
6.40682e-13
0
4.32363e-13
1.09436e-13
0
3.66091e-13
0
0
0
0
0
0
0
0
0
0
0
1.42211e-12
1.04034e-12
3.074e-12
3.35992e-12
1.76401e-12
0
1.94854e-12
2.26406e-12
2.27266e-12
3.57161e-12
5.66236e-13
1.88149e-12
7.09912e-13
2.18498e-12
1.49907e-12
1.48445e-12
1.29454e-12
1.00066e-12
1.59456e-12
8.64069e-13
5.01779e-13
2.89726e-12
1.27238e-12
1.10677e-12
3.00319e-13
2.47158e-13
6.87557e-13
8.90979e-13
2.08834e-12
2.24971e-12
0
1.39472e-12
7.56499e-13
1.89518e-12
9.33903e-13
0
2.22677e-12
7.67537e-13
6.99831e-13
1.08615e-12
1.14128e-12
1.70582e-12
5.25163e-13
4.94289e-13
0
9.52154e-13
1.03015e-12
1.81706e-13
7.63426e-13
0
0
0
0
0
0
0
0
0
0
5.60471e-12
6.5302e-13
0
1.43699e-12
2.7607e-12
2.44639e-12
4.04407e-13
0
4.25303e-12
1.10379e-12
1.93957e-12
1.88957e-12
3.49181e-12
2.83542e-12
9.09674e-13
1.5573e-12
1.15089e-13
1.93663e-12
0
1.08507e-12
8.23023e-13
0
1.59742e-12
1.76742e-13
5.26667e-13
1.75793e-12
9.56487e-13
8.11571e-13
1.1081e-12
0
4.93902e-14
1.4861e-12
7.80049e-13
1.11938e-12
2.04832e-12
1.28227e-12
3.45361e-13
2.78849e-12
4.65728e-13
1.82214e-12
4.41054e-13
1.77589e-12
1.85123e-12
9.43461e-13
2.34196e-12
1.67928e-12
1.2606e-12
0
0
0
1.17466e-12
0
0
0
0
0
0
0
0
0
6.12058e-12
2.17508e-12
1.71693e-12
4.43188e-12
1.31598e-12
1.99111e-12
2.71996e-12
4.09851e-12
1.5778e-12
1.71744e-12
1.74854e-12
1.86635e-12
8.38429e-13
2.56653e-12
2.54806e-12
1.95293e-12
0
2.431e-12
0
1.63218e-12
1.27239e-12
1.11849e-12
1.57129e-12
1.42737e-12
0
5.67607e-13
1.96742e-13
4.76359e-13
5.05313e-13
5.41139e-13
0
0
3.64655e-12
1.72814e-13
1.38567e-12
9.3569e-13
2.04258e-12
2.59501e-12
6.58072e-13
0
1.02488e-12
1.49839e-12
1.52871e-12
1.21319e-12
8.98563e-13
9.10584e-14
1.04576e-12
0
0
0
7.50214e-13
0
0
0
0
0
0
0
0
0
2.14272e-12
7.19849e-13
2.46372e-12
9.60332e-13
2.10473e-12
1.95778e-12
2.56856e-12
2.50675e-12
1.83761e-12
2.19656e-12
1.32102e-12
4.24599e-12
2.15788e-12
9.14891e-13
0
4.06724e-12
2.13709e-12
1.51687e-12
2.45462e-13
4.76523e-13
4.26571e-13
1.46543e-12
8.14044e-13
8.7462e-13
1.71322e-12
0
4.74456e-13
3.16862e-12
1.02097e-12
1.25031e-12
1.8134e-12
9.28787e-13
6.05505e-13
1.40533e-12
1.83142e-12
8.12906e-15
2.35419e-12
6.83611e-13
5.07253e-13
0
3.0347e-13
3.74423e-13
7.4733e-13
1.13183e-12
1.6094e-12
1.04852e-12
6.88988e-13
0
9.92221e-13
0
8.36204e-13
0
0
0
0
0
0
0
0
0
4.60548e-12
2.83559e-12
1.32398e-12
2.22333e-12
3.37215e-12
2.63781e-12
7.98808e-13
1.62051e-13
8.22914e-13
4.60009e-13
2.11305e-12
8.78054e-13
5.1497e-13
3.06208e-12
1.52492e-12
2.11258e-12
1.13456e-12
2.98607e-12
1.84339e-12
2.98766e-12
7.06954e-13
0
8.26246e-13
3.0952e-12
3.54207e-12
8.80436e-13
4.25528e-13
1.45057e-12
1.95817e-12
1.31814e-12
9.8505e-13
1.793e-12
2.77955e-12
2.31917e-12
2.17094e-12
0
8.16328e-13
3.48005e-12
4.58774e-13
1.52373e-12
9.17573e-13
7.96288e-13
2.57847e-12
1.16093e-12
2.14796e-12
2.08392e-12
0
1.07985e-12
0
0
0
0
0
0
0
0
0
0
0
0
4.09946e-12
3.12207e-12
1.16774e-12
2.49848e-12
2.65443e-12
2.34071e-12
1.60331e-12
1.54026e-12
5.40028e-12
8.71245e-13
1.54707e-12
3.64077e-12
3.20225e-12
4.55596e-12
2.00694e-12
1.23558e-12
1.0051e-12
1.10057e-12
9.33277e-13
5.51997e-13
1.39458e-12
6.81672e-13
1.20852e-12
1.66261e-12
8.34694e-13
5.06294e-13
7.77978e-13
9.32631e-13
1.90543e-12
6.06422e-13
5.85872e-13
1.08133e-12
2.94829e-12
2.59736e-12
4.16177e-13
0
1.91633e-12
2.36283e-12
1.17637e-12
2.47248e-12
0
0
2.62529e-12
0
1.38327e-12
0
1.14764e-12
0
1.06971e-12
0
0
0
0
0
0
0
0
0
0
0
2.14189e-12
2.18771e-12
7.37215e-13
9.77553e-13
4.4463e-13
8.66728e-13
1.19526e-12
3.71041e-12
2.03156e-12
1.21133e-12
1.96126e-12
2.26145e-12
1.95033e-12
1.06901e-12
2.57593e-12
2.05746e-12
1.14794e-12
2.01197e-12
4.56221e-13
8.02128e-13
1.12588e-12
2.64798e-12
1.08746e-12
2.44312e-13
3.82235e-12
0
2.8577e-12
7.85049e-13
1.09525e-12
7.79577e-13
1.15901e-12
3.37657e-12
1.58956e-12
9.82676e-13
2.02673e-12
0
1.40307e-12
1.91352e-12
5.5518e-13
3.91638e-12
1.68225e-12
1.06189e-12
2.55763e-12
0
8.59759e-13
1.02338e-12
1.04921e-12
2.72891e-14
9.51432e-13
1.37982e-12
0
0
0
0
0
0
0
0
0
0
1.81883e-12
2.68584e-12
3.0889e-12
4.61517e-12
1.59194e-12
2.08464e-12
1.4928e-12
1.31421e-12
1.87445e-12
2.91789e-12
4.65231e-12
3.532e-12
2.94623e-12
9.45302e-13
3.45673e-13
4.39439e-12
2.47403e-12
2.57761e-12
2.75665e-12
6.18985e-13
3.36932e-13
7.37525e-13
0
0
7.32163e-13
1.48438e-12
1.05345e-12
1.08427e-12
1.71668e-12
2.52694e-12
2.17927e-12
2.52519e-12
3.00887e-12
4.0767e-12
2.13677e-13
5.83014e-13
1.60576e-12
5.36218e-13
1.31794e-12
1.43594e-12
0
7.67906e-13
1.09679e-12
6.89387e-13
8.99379e-13
0
1.43817e-12
1.75179e-12
3.0614e-13
0
0
0
0
0
0
0
0
0
0
0
5.5672e-12
1.26058e-12
4.46967e-12
2.51526e-12
1.55711e-12
2.57858e-12
2.52147e-12
2.67083e-12
2.39672e-12
3.0557e-12
2.13179e-12
3.67221e-12
1.41981e-12
5.97667e-12
2.23015e-12
1.85238e-12
4.33079e-13
3.24534e-12
7.20355e-13
2.31268e-12
1.37072e-12
3.65408e-13
9.92095e-13
1.18743e-12
1.95675e-12
1.3252e-12
1.39335e-12
1.17771e-12
6.46206e-13
2.2621e-12
3.01748e-12
2.40075e-12
4.00925e-12
2.23882e-12
7.95565e-14
2.14396e-13
1.9304e-12
8.01539e-13
6.74882e-13
2.95683e-12
4.96685e-14
3.08944e-12
2.10195e-12
0
8.28139e-13
1.83225e-12
9.21455e-13
1.61585e-12
1.35477e-12
0
0
0
0
0
0
0
0
0
0
0
1.49247e-12
0
3.89155e-12
5.93965e-12
2.34269e-12
1.56181e-12
6.03577e-12
1.47034e-12
1.88851e-12
3.67599e-12
1.38767e-12
2.22176e-12
1.67089e-12
3.19678e-12
1.92134e-12
0
1.11401e-12
5.76448e-13
5.85632e-13
1.45346e-12
9.60254e-13
6.22004e-13
1.42218e-12
7.10096e-13
1.71558e-12
2.48703e-12
2.38558e-12
1.35871e-12
1.97003e-12
4.64705e-13
2.35969e-12
2.40746e-12
1.35808e-12
2.06745e-12
4.63408e-13
4.39524e-13
8.02298e-13
1.85817e-12
1.58373e-12
0
2.18988e-12
3.15951e-12
0
0
1.9338e-12
1.93415e-12
9.8148e-13
1.25025e-12
0
0
0
0
1.43531e-12
0
0
0
0
0
0
0
2.58426e-12
2.62055e-12
3.06032e-12
3.94337e-12
3.25036e-12
2.06333e-12
1.0026e-12
8.23379e-13
1.46296e-12
3.83306e-12
1.51369e-12
2.31122e-12
1.92007e-12
1.78733e-12
5.52983e-13
3.19329e-12
2.49355e-12
1.11252e-12
1.83103e-12
1.00183e-12
1.94409e-12
2.45205e-12
2.39525e-12
2.82775e-12
1.39572e-12
1.78665e-12
2.34448e-12
1.69272e-12
3.28405e-13
9.66971e-13
7.65965e-13
1.58298e-12
1.65816e-12
9.65954e-13
5.03889e-13
7.07601e-13
2.52185e-12
0
2.10167e-12
3.06876e-12
1.27203e-12
2.25408e-12
1.20401e-12
7.38624e-13
3.97546e-12
1.67196e-14
2.17469e-12
1.03034e-12
0
0
2.58604e-12
0
0
0
0
0
0
0
0
0
1.12198e-12
2.19444e-12
3.21956e-12
1.52918e-12
3.28228e-12
1.34883e-12
4.41094e-12
4.88982e-12
1.91807e-12
4.41286e-12
2.63916e-12
4.24155e-12
2.60037e-12
3.63835e-12
7.2571e-13
2.4963e-12
1.19399e-12
1.2256e-12
1.44514e-12
7.30913e-13
2.48799e-12
3.53675e-12
3.65814e-12
8.9078e-13
1.423e-12
3.72036e-13
1.64317e-12
1.07173e-12
6.23503e-13
1.14324e-12
1.3988e-13
3.17293e-12
1.85734e-12
2.89233e-12
4.88822e-12
3.31015e-12
1.12164e-12
2.20511e-12
1.29324e-12
0
1.29315e-12
1.66063e-12
1.15787e-12
1.07274e-12
0
0
0
0
0
3.14117e-12
5.08096e-13
1.2696e-12
0
0
0
0
0
0
0
0
1.00141e-12
4.91104e-12
2.127e-12
2.50628e-12
5.55447e-13
3.52995e-12
2.86362e-12
5.35688e-12
1.78466e-12
3.41144e-12
4.52685e-12
1.84786e-12
2.46132e-12
2.62653e-12
2.42562e-12
2.19504e-12
1.22118e-12
1.63118e-12
1.5285e-12
0
1.02318e-12
2.5878e-12
0
5.89524e-13
5.52868e-13
1.23191e-12
3.35775e-12
1.30266e-12
1.12839e-12
6.53495e-13
1.65345e-12
3.6253e-13
2.62372e-12
0
4.17678e-12
1.59412e-12
7.3244e-13
2.37943e-12
2.31518e-12
3.0504e-12
2.15583e-12
1.5057e-12
6.54598e-13
3.13578e-12
8.92383e-13
1.07517e-12
0
0
1.59659e-12
1.47778e-12
0
0
0
0
0
0
0
0
0
0
0
8.60724e-13
2.24065e-12
3.49244e-12
3.78633e-12
2.25608e-12
6.15992e-12
2.20847e-12
4.57037e-12
2.35002e-12
2.312e-12
2.37902e-12
5.45995e-12
4.36734e-12
2.97258e-12
1.70863e-12
4.6846e-12
3.60361e-12
1.63672e-12
1.64041e-12
1.29069e-12
1.08957e-12
1.14064e-12
1.6466e-12
8.14547e-13
2.12674e-12
2.12848e-12
0
3.72719e-12
1.47323e-12
1.9918e-12
0
2.13752e-12
6.03725e-13
2.756e-12
2.26862e-12
0
0
4.69299e-12
0
3.39842e-12
3.35358e-12
0
2.0422e-12
2.37752e-13
8.86423e-13
0
0
0
0
0
0
0
0
0
0
0
0
0
0
2.76526e-12
1.89098e-12
2.80778e-12
5.29215e-12
5.55275e-12
3.66528e-12
6.22269e-12
4.24076e-12
3.44501e-12
3.70975e-12
2.01375e-12
3.51316e-12
1.89862e-12
4.28129e-12
1.17909e-12
3.3509e-12
1.14738e-12
1.22272e-12
2.07809e-12
1.25598e-12
3.10372e-12
3.38023e-12
1.6184e-12
2.72782e-13
1.8787e-12
2.01529e-12
2.41212e-12
2.35199e-12
8.1049e-13
1.10467e-12
1.16957e-12
1.21013e-12
2.9881e-12
1.68077e-12
3.13759e-12
1.23209e-12
1.63539e-12
1.85784e-12
1.96955e-12
0
4.0234e-12
2.42111e-12
6.84518e-13
3.13963e-12
5.56906e-13
2.08323e-12
0
1.32813e-12
0
0
0
0
0
0
0
0
0
0
0
0
1.00476e-11
1.81505e-12
2.59729e-12
1.84752e-12
3.44068e-12
2.38576e-12
3.62319e-12
2.77997e-12
2.1012e-12
2.63259e-12
5.13988e-12
5.94093e-13
3.04789e-12
1.02249e-12
3.17586e-12
2.03731e-13
2.08034e-12
2.82494e-12
4.54504e-13
1.34786e-12
1.77074e-12
1.32836e-12
1.78767e-12
7.97608e-13
1.58429e-12
1.67141e-12
2.15877e-12
1.50397e-12
1.29016e-13
8.29245e-13
4.8053e-12
8.50714e-13
2.48194e-12
3.71879e-13
4.61279e-12
1.91754e-12
5.77448e-13
0
1.44567e-12
2.03033e-12
2.21549e-12
4.66351e-14
7.09905e-13
0
5.4312e-13
2.92643e-13
1.55645e-12
1.48029e-12
0
0
0
0
0
0
0
0
0
0
0
0
0
4.60149e-12
4.93233e-12
1.35294e-12
1.7365e-12
2.38981e-12
3.01818e-12
5.589e-12
4.58364e-12
3.46555e-12
6.2875e-12
4.12164e-12
4.50852e-12
8.50982e-13
3.78098e-12
2.84678e-12
1.84701e-12
2.90297e-12
0
4.92892e-12
6.19441e-13
1.85623e-12
2.86634e-12
2.30363e-12
8.29758e-13
4.45604e-13
3.9935e-13
2.48731e-12
1.0578e-12
1.15294e-12
1.99397e-12
1.76428e-12
9.31023e-13
5.56002e-13
8.80568e-13
2.34829e-12
2.65343e-12
3.37447e-12
2.21686e-12
2.78043e-12
7.90876e-12
8.51121e-13
0
2.43337e-12
3.43401e-12
3.11433e-12
0
4.57332e-13
8.10951e-13
0
0
0
0
0
0
0
0
0
0
0
7.17517e-13
1.44251e-12
2.20584e-12
1.93191e-12
4.29058e-12
1.74422e-12
3.28075e-12
4.15661e-12
2.28392e-12
4.70961e-12
3.39484e-12
2.46731e-12
4.1069e-13
2.09222e-12
3.31996e-12
2.18465e-12
2.82432e-12
3.85044e-12
2.44664e-12
3.51528e-12
2.09186e-12
1.51632e-12
1.8796e-12
8.4501e-13
2.10021e-12
2.06273e-12
1.06926e-12
2.12792e-12
1.01704e-12
1.16236e-12
3.29889e-12
2.64504e-12
1.79092e-13
1.63371e-12
2.92164e-12
2.72936e-12
8.18331e-13
2.49274e-12
1.75505e-12
5.86076e-12
7.2602e-12
0
1.57323e-12
1.63918e-14
6.89782e-13
1.26454e-12
0
0
0
1.58832e-12
0
0
0
0
0
0
0
0
0
0
0
5.07608e-12
2.59021e-12
3.07831e-12
4.01721e-12
1.07886e-12
2.8648e-12
5.27178e-12
1.75002e-12
1.39328e-12
1.9913e-12
1.29225e-12
4.4957e-12
1.28128e-12
4.68961e-12
1.98128e-12
1.33468e-12
3.10246e-12
1.28954e-12
1.74859e-12
1.49876e-12
3.07647e-12
3.72346e-12
3.30713e-12
1.70554e-12
5.05738e-12
2.66518e-12
1.59358e-12
2.82786e-12
3.00652e-12
3.42005e-12
1.65035e-12
2.16353e-12
1.67245e-12
1.34545e-12
2.47618e-12
1.21904e-12
1.32989e-12
1.2439e-12
1.34965e-12
2.25293e-12
0
2.35485e-12
8.98478e-13
1.82699e-13
3.35048e-12
0
0
0
0
0
0
0
0
0
0
0
0
0
0
0
3.32398e-12
3.2759e-12
4.10815e-12
9.80941e-13
3.21214e-12
5.16946e-12
4.87117e-12
3.27152e-12
3.06929e-12
3.57829e-12
5.23168e-12
5.8017e-13
1.9412e-12
1.71078e-12
2.50991e-12
1.99931e-12
2.62966e-12
1.58309e-12
5.06024e-13
1.72217e-12
1.12454e-12
2.72202e-12
2.42074e-12
1.32991e-12
1.43138e-12
1.99377e-12
1.01558e-12
2.22588e-12
1.80146e-12
3.10542e-12
8.85957e-13
1.99253e-12
4.51498e-13
3.27423e-12
2.02062e-12
7.95228e-13
2.21541e-12
2.35153e-12
2.45848e-12
2.4155e-12
0
0
2.50991e-14
1.80136e-12
2.21081e-12
0
0
0
0
0
0
0
0
0
0
0
0
0
0
0
2.42839e-12
2.45349e-12
2.04014e-12
2.79427e-12
4.9376e-12
3.9652e-12
3.71006e-12
4.37867e-12
3.34706e-12
9.85731e-13
3.85541e-12
4.52987e-12
2.87515e-12
2.86459e-12
2.61899e-12
1.46953e-12
2.28744e-12
1.58905e-12
3.24211e-12
1.45646e-12
2.30867e-12
1.9794e-12
8.37868e-13
4.417e-12
1.1295e-12
2.17046e-12
4.04958e-13
2.4981e-12
2.78754e-12
2.91242e-12
2.79536e-12
6.41908e-13
5.64976e-12
1.3255e-12
1.67881e-12
1.68955e-12
1.4184e-12
8.34462e-13
1.89779e-12
2.84379e-12
2.68054e-12
2.64621e-12
1.96193e-12
1.56964e-12
0
0
0
0
0
0
0
0
0
0
0
0
0
0
0
0
4.36152e-12
4.53607e-12
3.42832e-12
1.71607e-12
1.99466e-12
2.96785e-12
3.82243e-12
6.49069e-12
4.82139e-12
2.68861e-12
2.80592e-12
2.07654e-12
3.77115e-12
4.44402e-12
3.60278e-12
3.60853e-12
5.13735e-12
6.82407e-13
2.2376e-12
7.11941e-13
9.10708e-13
1.8214e-12
9.13387e-13
4.20801e-12
2.5192e-12
1.94001e-12
8.41198e-13
1.77075e-12
7.69607e-13
1.8367e-12
4.17555e-12
9.768e-13
7.41094e-13
2.2641e-12
1.19609e-12
5.17292e-13
2.78316e-12
8.53679e-13
2.43919e-12
5.31826e-12
2.87065e-12
9.32888e-13
3.99455e-12
1.58096e-12
0
0
0
1.48584e-12
0
0
0
0
0
0
0
0
0
0
0
0
1.85463e-12
1.63552e-12
2.90961e-12
3.86673e-12
2.56177e-12
6.33409e-12
3.6825e-12
2.63812e-12
3.31916e-12
3.67364e-12
7.30734e-12
2.41089e-12
9.5388e-13
2.80656e-12
1.34652e-12
2.07815e-12
2.6611e-12
1.78527e-12
1.57391e-12
3.79408e-12
2.38693e-12
6.18548e-13
1.20048e-12
2.01867e-12
1.88679e-12
3.00008e-12
8.51042e-13
3.27665e-12
7.00138e-13
3.06051e-12
2.19537e-12
5.66629e-12
1.28024e-12
2.09683e-12
2.16989e-12
4.86332e-12
1.80699e-12
8.01852e-13
0
3.04035e-12
1.85414e-12
8.58843e-13
0
0
9.27241e-13
0
0
0
0
0
0
0
0
0
0
0
0
0
0
0
7.69399e-12
2.79284e-12
3.00558e-12
4.10966e-12
3.9734e-12
5.70232e-12
3.64351e-12
4.8069e-12
6.24152e-12
2.64495e-12
3.05594e-12
4.0537e-12
1.80775e-12
3.21334e-12
3.95265e-12
1.39703e-12
1.43626e-12
5.66655e-12
1.45447e-12
2.82373e-12
3.15009e-12
7.18261e-13
1.97138e-12
1.33516e-12
1.1218e-12
1.14532e-12
1.49123e-12
2.50532e-12
2.84108e-12
1.73999e-12
3.10314e-12
2.34075e-12
5.21035e-13
4.50463e-12
7.72543e-13
1.34225e-12
2.16036e-12
4.13573e-12
2.13757e-12
8.47005e-13
4.56861e-12
0
1.37233e-12
2.67495e-12
5.17926e-12
1.08359e-12
1.60958e-12
0
0
0
0
0
0
0
0
0
0
0
0
0
2.94812e-12
1.74702e-12
2.96616e-12
7.40248e-12
3.54746e-12
4.50249e-12
1.61355e-12
5.43142e-12
3.28807e-12
2.97047e-12
1.23345e-12
3.29836e-12
4.88365e-12
3.46127e-12
8.34573e-13
7.55628e-13
3.05894e-12
1.96877e-12
2.20937e-12
1.31738e-12
3.31382e-12
1.70714e-12
1.93571e-12
4.34896e-12
1.35162e-12
1.7416e-12
2.08074e-12
2.04724e-12
1.1699e-12
5.26857e-12
4.02719e-12
2.12333e-12
2.34424e-12
2.88796e-12
1.4483e-12
1.36922e-12
2.50212e-12
2.01534e-12
6.04872e-13
4.57617e-12
6.38696e-13
2.51026e-12
2.08295e-12
2.96575e-12
1.20205e-12
2.95056e-12
1.91446e-12
0
0
0
0
0
0
0
0
0
0
0
0
0
5.81145e-13
3.81175e-12
2.12682e-12
3.42603e-12
4.77391e-12
1.01386e-12
7.3415e-12
2.42892e-12
6.97139e-12
5.47532e-12
4.28826e-12
3.87545e-12
3.17117e-12
3.0674e-12
5.78384e-12
3.4879e-12
3.06777e-12
1.69944e-12
4.26661e-12
1.44177e-12
2.85601e-12
2.15769e-12
4.11358e-12
0
1.37625e-12
1.34539e-12
2.47099e-12
2.41017e-12
0
4.25955e-12
4.72899e-14
1.355e-12
2.41282e-12
3.65569e-12
3.16701e-12
2.20783e-12
4.02814e-12
1.92828e-12
2.47819e-12
1.66454e-12
2.90036e-12
2.09938e-12
3.48668e-12
9.61153e-13
2.05298e-12
0
0
1.16553e-12
0
0
0
0
0
0
0
0
0
0
0
0
2.06541e-12
1.43581e-12
1.62659e-12
7.23377e-12
2.74466e-12
1.92298e-12
1.09415e-12
4.01596e-12
2.63715e-12
4.77117e-12
4.15311e-12
3.58886e-12
4.76788e-12
4.06708e-12
2.66645e-12
7.88505e-13
2.7239e-12
2.28197e-12
2.34348e-12
1.83776e-12
4.86642e-12
4.70649e-12
9.5771e-13
8.68566e-13
3.08882e-12
1.12295e-12
9.65112e-13
2.64587e-12
2.86324e-12
9.88322e-13
2.50248e-12
2.42872e-12
5.97636e-13
2.7465e-12
1.06643e-12
1.76838e-12
2.98607e-12
2.68069e-12
1.99213e-12
1.31437e-12
3.7331e-12
9.81306e-13
1.52536e-12
3.36103e-12
7.94941e-14
9.53768e-13
2.43602e-14
1.07287e-12
0
0
0
0
0
0
0
0
0
0
0
0
7.09936e-12
2.82254e-12
5.60677e-12
1.40869e-12
5.52321e-12
2.81277e-12
3.1588e-12
6.33175e-12
1.39981e-12
4.48126e-12
3.9556e-12
4.15196e-12
1.86839e-12
3.17148e-12
0
2.6768e-12
5.78276e-12
2.52565e-12
1.37993e-12
6.6711e-12
3.38547e-12
3.11377e-12
3.4826e-12
1.16781e-12
3.10406e-12
1.48419e-12
2.131e-12
1.7311e-12
3.62839e-12
3.16248e-12
8.32022e-13
2.39566e-12
2.50604e-12
2.7492e-12
2.24336e-12
1.27237e-12
3.30505e-12
1.99341e-12
2.47212e-12
1.92628e-12
5.26914e-12
0
0
1.48323e-12
1.92039e-12
9.60881e-13
1.47449e-12
1.03432e-12
0
0
0
0
0
0
0
0
0
0
0
0
3.31571e-12
4.51714e-12
2.79628e-12
4.16854e-12
1.57818e-12
3.92779e-12
2.63693e-12
6.01036e-12
1.08707e-12
6.12966e-12
3.22819e-12
2.73553e-12
4.89462e-13
3.5745e-12
2.4175e-12
2.22993e-12
4.49522e-12
1.41477e-12
2.0329e-12
2.9191e-12
2.8564e-12
2.61192e-12
6.50341e-12
2.48921e-12
3.04118e-12
2.78616e-12
2.37169e-12
5.08378e-13
1.05822e-12
1.73075e-12
7.04466e-13
3.09273e-12
2.11081e-12
1.24213e-12
1.83399e-12
2.03902e-12
3.73152e-12
1.55449e-12
2.44732e-12
0
2.15806e-12
0
1.54404e-12
1.93605e-12
2.51886e-12
1.96046e-12
1.93626e-12
0
0
0
0
0
0
0
0
0
0
3.64428e-13
0
5.18986e-13
3.54372e-13
2.77035e-12
5.12012e-12
4.48762e-12
3.29091e-12
2.87614e-12
2.21084e-12
5.6449e-12
2.55677e-12
5.82399e-12
3.1741e-12
4.67157e-12
5.47964e-12
7.90093e-13
2.15787e-12
4.14042e-12
2.78229e-12
2.65951e-12
1.40163e-12
1.83224e-12
4.08392e-12
2.31084e-12
3.00315e-12
3.63089e-12
5.61106e-13
6.16618e-13
2.93344e-12
7.72576e-13
1.48445e-12
4.65747e-12
3.29798e-12
1.39498e-12
3.19498e-12
2.62715e-13
2.61026e-12
3.19477e-12
2.96329e-12
1.25808e-12
1.60393e-12
2.38237e-12
2.53275e-12
4.70726e-12
2.10143e-12
1.60551e-12
2.10566e-12
2.26594e-12
0
0
1.46276e-12
0
0
0
0
0
0
0
0
0
0
0
5.4127e-12
3.9221e-12
2.1484e-12
4.06233e-12
1.46139e-12
1.45072e-12
3.3225e-12
2.29883e-12
3.94051e-12
4.57665e-12
2.11972e-12
2.11623e-12
1.12202e-12
1.80074e-12
2.20349e-12
1.80034e-12
1.37226e-12
2.63519e-12
1.8226e-12
3.18e-12
1.24441e-12
2.41471e-12
5.30279e-12
2.71284e-13
1.53214e-12
9.41568e-13
1.22529e-12
1.617e-12
3.93013e-12
4.21114e-12
3.21394e-12
6.6801e-13
1.6092e-12
2.62266e-12
3.99657e-12
4.82434e-12
1.58265e-12
3.31194e-12
1.32579e-12
1.11953e-12
1.08233e-12
3.61463e-12
3.19627e-12
1.47612e-12
1.02227e-12
2.14154e-12
0
0
0
0
0
0
0
0
0
0
0
0
0
0
4.72614e-12
1.45048e-12
2.39053e-12
3.54708e-12
5.14337e-12
6.02166e-12
3.70363e-12
2.31501e-12
2.64746e-12
2.57804e-12
4.33827e-12
3.65004e-12
2.26247e-12
5.58725e-12
4.88135e-12
1.92252e-12
2.90931e-12
1.9775e-12
2.85023e-12
3.44232e-12
4.43529e-12
9.34835e-13
4.29233e-12
1.59422e-12
9.39193e-13
2.10244e-12
4.37227e-13
3.3752e-12
7.56625e-13
2.55297e-12
1.20779e-12
1.47908e-12
3.96104e-13
4.07315e-12
4.288e-12
1.54786e-12
1.61417e-12
2.43185e-12
1.53911e-12
5.83033e-13
2.86956e-12
2.38303e-12
7.43753e-13
9.48498e-13
1.68047e-12
7.79061e-13
9.7507e-13
1.39547e-12
0
0
0
0
0
0
0
0
0
0
0
0
4.57021e-12
2.86075e-12
2.5768e-12
1.81929e-12
5.23234e-12
6.12818e-12
2.22896e-12
2.48032e-12
5.22724e-12
2.92667e-12
1.60263e-12
2.14372e-12
3.23666e-12
1.40038e-12
8.69618e-13
2.5747e-12
9.36507e-13
3.7921e-12
1.52738e-12
9.05835e-13
1.50883e-12