/*--------------------------------*- C++ -*----------------------------------*\
| =========                 |                                                 |
| \\      /  F ield         | OpenFOAM: The Open Source CFD Toolbox           |
|  \\    /   O peration     | Version:  v1906                                 |
|   \\  /    A nd           | Web:      www.OpenFOAM.com                      |
|    \\/     M anipulation  |                                                 |
\*---------------------------------------------------------------------------*/
FoamFile
{
    version     2.0;
    format      ascii;
    class       volScalarField::Internal;
    location    "2.83";
    object      coalCloud1:hsCoeff;
}
// * * * * * * * * * * * * * * * * * * * * * * * * * * * * * * * * * * * * * //

dimensions      [1 2 -2 -1 0 0 0];


value           nonuniform List<scalar> 
26400
(
3.9108e-08
7.77779e-08
1.27997e-07
3.85873e-08
1.29529e-07
7.62612e-08
1.1112e-07
6.33274e-08
2.32727e-08
1.11185e-07
5.15851e-08
1.32828e-07
1.09109e-08
1.39704e-08
6.14443e-08
1.29267e-07
5.32335e-08
6.62189e-08
1.94158e-07
8.03712e-08
4.2198e-08
1.02949e-08
5.81748e-08
2.54981e-07
1.85387e-08
5.16271e-08
1.18993e-07
4.65004e-08
3.86809e-08
1.92245e-08
2.85183e-08
6.27821e-08
1.32157e-07
3.38845e-08
2.05947e-08
1.91361e-07
4.93278e-08
8.48474e-08
0
0
0
9.05542e-08
0
2.09813e-08
0
0
0
0
7.41902e-08
0
0
0
0
0
0
0
0
0
0
0
1.06268e-07
1.68974e-07
2.30586e-07
1.25613e-07
4.08165e-08
7.28124e-08
1.61369e-07
3.51138e-08
4.28185e-08
2.83654e-08
1.05997e-07
5.60216e-08
1.11515e-07
4.37867e-08
1.00637e-07
3.18615e-09
4.56608e-08
1.02519e-08
3.71408e-08
1.23739e-07
8.36214e-08
6.40909e-09
1.06479e-07
3.25269e-08
1.73614e-08
0
9.71192e-08
5.05202e-09
5.23276e-08
7.20311e-09
6.25654e-08
5.3533e-08
0
3.23119e-08
7.04893e-08
0
0
1.44934e-07
5.81323e-08
1.35775e-07
8.09691e-08
0
8.99049e-10
1.14701e-07
0
0
0
1.12341e-07
4.69424e-08
0
0
0
0
0
0
0
0
0
0
0
6.14731e-08
4.96497e-08
9.67905e-08
2.35803e-07
0
9.99661e-08
8.36724e-08
5.68261e-08
3.72528e-08
1.13774e-07
7.11469e-08
0
8.84474e-08
1.25245e-07
2.87826e-07
1.22843e-07
6.00851e-08
7.36117e-08
6.14668e-08
1.32721e-08
1.94549e-08
2.05998e-08
0
5.61157e-08
9.59586e-08
3.19905e-08
7.20901e-08
3.05017e-08
1.12826e-07
4.04032e-08
6.68403e-09
2.02051e-08
5.05002e-08
0
0
9.55236e-08
1.9953e-07
9.02425e-08
4.64684e-08
1.35367e-07
5.39089e-08
7.93155e-08
7.94693e-08
4.31288e-08
1.08403e-07
5.28947e-08
0
0
0
0
0
0
0
0
0
0
0
0
0
0
2.48545e-08
3.35037e-08
8.55245e-08
3.5241e-08
7.94751e-08
8.38046e-08
8.35692e-08
1.79368e-07
4.31012e-08
9.03373e-08
8.53635e-08
1.33375e-08
7.52887e-08
8.57824e-08
2.26355e-08
8.0001e-08
8.52256e-09
2.38344e-07
0
5.48776e-08
1.20446e-08
9.67554e-08
1.55124e-08
3.37565e-08
9.99628e-08
0
2.38071e-08
2.24936e-08
6.88564e-08
5.53707e-08
8.59824e-09
0
5.79803e-08
5.22901e-08
9.35139e-08
2.44643e-08
8.2609e-08
1.89755e-08
0
7.24061e-08
3.35495e-08
1.44733e-08
1.42191e-07
2.20939e-07
0
1.78622e-08
2.40896e-07
6.72777e-08
0
0
0
0
0
0
0
0
0
0
0
0
1.17756e-07
6.1282e-08
3.93857e-08
7.79265e-08
5.0028e-08
1.07689e-07
6.7247e-08
1.78792e-07
1.73571e-08
6.44097e-08
8.76371e-08
1.27302e-08
0
1.07298e-07
1.75758e-07
1.79027e-07
1.61414e-08
1.15632e-08
1.64957e-07
1.53687e-08
6.52029e-08
1.95071e-08
8.75774e-08
9.67729e-08
4.46811e-08
2.38773e-07
8.19665e-08
7.35175e-09
8.1499e-08
6.66251e-08
1.46921e-07
4.02309e-08
7.75677e-08
7.97111e-08
1.07347e-08
8.73666e-08
2.499e-08
0
7.36247e-08
0
3.92025e-08
2.83484e-08
1.05799e-07
2.32285e-07
4.75967e-08
6.01087e-08
0
1.40503e-08
0
0
0
0
0
0
0
0
0
0
0
0
1.10887e-07
1.48747e-07
4.15961e-08
5.66027e-08
1.72748e-07
1.97353e-07
1.16578e-07
2.2089e-07
1.15591e-08
2.28345e-08
1.05844e-07
5.24324e-08
0
5.63224e-08
5.21868e-08
3.92903e-08
0
0
1.59026e-08
1.1605e-07
1.40794e-07
1.40018e-07
4.60384e-08
3.40617e-08
0
0
5.66767e-08
0
6.87562e-09
9.05944e-08
1.81634e-08
1.76563e-08
1.26348e-07
0
2.45261e-08
1.8116e-07
1.09347e-08
8.18245e-08
4.12651e-08
7.53273e-08
8.85137e-09
1.87923e-07
8.87603e-08
0
1.5846e-07
1.25676e-07
0
0
0
0
0
0
0
0
0
0
0
0
0
0
8.3878e-08
1.46469e-07
5.93446e-08
1.45735e-08
1.12535e-08
1.16246e-07
4.43746e-08
9.99127e-08
7.08566e-08
4.64182e-08
4.75678e-08
1.86183e-07
1.01453e-07
5.32942e-08
6.67111e-08
2.20597e-08
9.90404e-08
1.34115e-08
1.02052e-08
7.4992e-08
2.07479e-08
1.23068e-07
0
0
1.20686e-07
1.09253e-07
5.22585e-08
0
1.67473e-08
1.89451e-08
8.29216e-08
2.10806e-08
4.71614e-08
3.30633e-08
7.87944e-08
1.1147e-07
2.61876e-08
0
5.29615e-09
5.61664e-08
3.83425e-08
0
5.62664e-08
1.38638e-08
1.65209e-07
0
0
0
1.70748e-07
0
0
0
0
0
0
0
0
0
0
0
4.69957e-08
1.07854e-07
1.23182e-07
9.54117e-08
7.04262e-08
9.09637e-08
1.76924e-07
8.67922e-08
6.11571e-08
7.06798e-08
5.4795e-08
4.94419e-08
7.20047e-08
1.89229e-07
1.62711e-07
4.31167e-08
1.03036e-07
1.17701e-08
1.00177e-08
3.88644e-08
1.0376e-07
0
8.04666e-09
1.64967e-07
3.9152e-09
3.57967e-08
2.60361e-07
5.1923e-08
0
7.16479e-09
5.74426e-09
5.38007e-08
2.29583e-07
1.00233e-07
1.11445e-07
2.77856e-08
1.50964e-07
1.14327e-07
5.39518e-08
2.47739e-07
3.48508e-08
5.19189e-08
1.17592e-07
3.83332e-08
2.71127e-08
0
0
0
9.41371e-09
0
0
0
0
0
0
0
0
0
0
0
1.6472e-08
5.1842e-08
1.45335e-07
1.03523e-07
3.03135e-08
6.99012e-08
4.17094e-08
3.64539e-08
1.95154e-08
6.81956e-08
7.99863e-08
1.6271e-07
1.87506e-08
3.19519e-07
2.01814e-07
1.4945e-07
1.46314e-07
7.72298e-08
1.04853e-09
4.23401e-08
0
7.11378e-08
2.13987e-08
1.60285e-07
0
7.40003e-08
0
9.67306e-08
3.8682e-08
2.07482e-08
1.1144e-07
8.61624e-09
8.02248e-08
1.87726e-07
0
1.41738e-08
0
3.55586e-08
2.95525e-08
1.02796e-07
5.49225e-08
7.67499e-08
1.20266e-07
5.1534e-08
4.77022e-08
0
0
0
1.99209e-07
0
0
0
0
0
0
0
0
0
0
0
5.56913e-08
9.80043e-08
7.97178e-08
8.5286e-10
2.09144e-08
7.54557e-08
1.05389e-07
2.63105e-07
6.52035e-08
8.03941e-09
1.13851e-07
6.88693e-08
9.05954e-08
1.21403e-07
2.34048e-07
5.78711e-08
5.38659e-08
8.14139e-08
6.13365e-08
5.93599e-08
5.93317e-10
6.73084e-09
1.73975e-07
3.76811e-08
1.45248e-07
0
1.20169e-08
1.57735e-07
9.63965e-08
1.36945e-07
2.01243e-08
7.48761e-08
2.52957e-08
2.29814e-07
8.15789e-08
1.02026e-07
7.02717e-08
2.47873e-08
0
2.32351e-08
0
4.24421e-08
3.12913e-08
5.40157e-08
2.65236e-07
1.04228e-07
1.73165e-07
9.68954e-08
0
0
0
0
0
0
0
0
0
0
0
0
1.00947e-07
1.53702e-07
1.1076e-08
3.42888e-08
1.36152e-07
2.31034e-08
2.07207e-07
7.61431e-08
1.69123e-07
5.94931e-08
3.7081e-08
4.45046e-08
7.55271e-08
1.08199e-07
9.93151e-08
0
1.39454e-08
6.51006e-08
7.9824e-08
8.04147e-08
5.19822e-08
3.46666e-08
6.3807e-08
6.23259e-08
1.03485e-08
6.84655e-08
2.12495e-08
8.53914e-08
4.16023e-08
1.5965e-07
3.42266e-08
1.52783e-08
0
2.87537e-09
2.29067e-08
0
4.06943e-08
0
4.2463e-08
1.11606e-07
7.83425e-08
0
1.26338e-07
0
0
8.03103e-08
5.82178e-08
8.98933e-08
0
0
0
0
0
0
0
0
0
0
0
0
2.09187e-07
7.27309e-08
8.25902e-08
4.43409e-08
5.02851e-08
2.73885e-08
2.88688e-08
0
2.15676e-07
9.29167e-08
6.51969e-08
8.51682e-09
1.31166e-07
1.59397e-07
1.10269e-07
8.63856e-08
1.64962e-08
2.1295e-07
3.55595e-08
6.48642e-08
1.90699e-08
9.25853e-08
1.91112e-07
3.43875e-08
0
4.24207e-08
7.41015e-08
7.37081e-08
1.45688e-07
6.21969e-08
1.40794e-08
1.49699e-07
1.74766e-08
5.53003e-08
1.20708e-07
7.27775e-09
5.96349e-08
2.45142e-08
6.7525e-08
5.35105e-09
6.84228e-08
0
4.02127e-08
0
0
8.70737e-08
3.04631e-08
0
0
0
1.16451e-07
0
0
0
0
0
0
0
0
0
1.20805e-07
8.6997e-08
1.33613e-07
3.07114e-07
5.87169e-08
1.05836e-07
5.70718e-08
1.58385e-08
6.84156e-08
2.11355e-08
1.81055e-07
7.07332e-09
0
7.33789e-08
5.3679e-08
4.32163e-08
1.0155e-07
1.34204e-08
2.44188e-07
3.68868e-08
2.13285e-08
1.7205e-08
9.17921e-08
0
1.76639e-08
4.43827e-08
7.72266e-08
1.9189e-08
9.77917e-08
1.53648e-07
6.54996e-10
5.33566e-08
5.4333e-08
9.40038e-09
1.09025e-07
2.07907e-08
8.17348e-08
0
1.589e-07
2.55387e-08
9.55616e-08
4.47364e-08
0
4.67707e-08
0
0
3.95819e-08
0
0
0
0
0
0
0
0
0
0
0
0
0
1.83143e-07
1.08581e-07
5.63889e-08
7.20674e-08
1.53506e-07
1.62104e-07
3.19882e-08
2.72677e-08
4.74032e-08
1.21501e-07
9.81533e-08
1.77398e-08
1.63239e-07
1.06881e-07
2.15206e-08
3.12599e-08
1.12643e-08
1.45658e-08
1.31368e-07
1.07413e-07
7.2213e-08
3.60162e-08
2.47771e-08
2.19642e-08
1.60822e-08
8.351e-08
1.8162e-09
1.55484e-08
0
0
2.61367e-08
6.52089e-09
3.07474e-08
3.39205e-08
5.32974e-08
1.34629e-07
1.56164e-07
7.60139e-08
1.18944e-07
1.74241e-08
0
0
2.2676e-07
0
6.0743e-08
0
0
0
0
0
0
0
0
0
0
0
0
0
0
0
8.43195e-08
1.00604e-07
3.77153e-08
3.27008e-08
6.91483e-08
1.0686e-07
2.15223e-07
7.9684e-08
9.37225e-08
5.46305e-08
1.24523e-07
9.28353e-08
4.90555e-09
2.47815e-07
1.71576e-08
1.09219e-07
7.47539e-08
4.29112e-08
0
6.97513e-10
8.44197e-08
1.11937e-07
2.94853e-08
6.13239e-08
8.17087e-08
1.07811e-07
2.60709e-08
1.0765e-07
9.09541e-08
1.27816e-07
2.54516e-08
1.13894e-07
0
2.14738e-08
7.11007e-08
1.1394e-07
2.42297e-07
5.37897e-08
8.57077e-08
8.32325e-08
1.04855e-07
1.23405e-07
1.61035e-07
7.02017e-08
0
0
0
0
0
0
0
0
0
0
0
0
0
0
0
0
1.85612e-07
9.20046e-08
3.6978e-08
1.72616e-08
2.70267e-08
6.22521e-08
1.60103e-07
2.39822e-08
1.91984e-07
0
1.00482e-07
1.96032e-07
3.88659e-08
5.00742e-08
2.09488e-08
1.59179e-07
2.26591e-07
1.39968e-07
7.14655e-08
2.17059e-07
5.56588e-08
7.5745e-08
7.8104e-08
5.78144e-09
2.10816e-08
2.19771e-08
8.63807e-08
7.98316e-08
2.80198e-08
1.24873e-08
3.89159e-09
5.73791e-08
2.56967e-08
2.07954e-08
1.98447e-08
4.24228e-08
0
1.4489e-07
2.4002e-08
7.71417e-08
0
1.13057e-07
2.49908e-09
0
0
0
0
0
0
0
0
0
0
0
0
0
0
0
0
0
4.76703e-08
2.32595e-08
1.20351e-08
1.79758e-07
4.75772e-08
8.43428e-09
7.22688e-08
5.69372e-08
9.49416e-08
1.19823e-07
1.08414e-07
1.50902e-07
7.34912e-08
7.13467e-08
1.59956e-08
2.38489e-08
0
9.34957e-08
2.10254e-08
1.85978e-09
5.72118e-08
4.12578e-08
1.51139e-07
3.01594e-08
3.86722e-08
5.28142e-08
2.09287e-07
1.4297e-07
0
4.87575e-08
3.01723e-08
2.05471e-08
6.7645e-08
5.10691e-08
1.46994e-08
3.4917e-08
4.18462e-08
1.75892e-08
6.58145e-08
3.58167e-08
0
5.12411e-08
9.43949e-08
0
0
3.42287e-08
0
1.23684e-08
7.35806e-08
0
0
0
0
0
0
0
0
0
0
0
1.11709e-07
7.50453e-08
2.27801e-08
1.30385e-07
6.93792e-08
5.79687e-08
1.11919e-07
9.73788e-08
9.22213e-08
1.39907e-07
3.25943e-08
7.44937e-08
8.59634e-08
6.52261e-08
2.08529e-07
1.98842e-07
2.27112e-08
1.80168e-07
1.77267e-07
1.21984e-07
5.80489e-08
2.81911e-08
2.06033e-08
0
4.89806e-08
4.46964e-08
7.01893e-08
5.14492e-08
7.70016e-08
5.81841e-08
1.86913e-08
5.40326e-08
3.29352e-08
1.70423e-07
2.77896e-08
1.8816e-07
2.46789e-08
5.92971e-08
2.43549e-08
7.18018e-08
1.60662e-08
0
1.91554e-08
2.29765e-07
0
4.16698e-07
0
0
0
2.25782e-07
3.19394e-08
0
0
0
0
0
0
0
0
0
1.26135e-07
1.76877e-08
1.17151e-07
7.05522e-08
1.02887e-07
5.05349e-08
1.37144e-07
5.29445e-08
9.36782e-08
1.04432e-07
6.79727e-08
1.69493e-07
4.17911e-10
7.33865e-08
5.90285e-08
4.06707e-08
4.75803e-08
1.81793e-07
6.38385e-08
0
4.52936e-08
8.81936e-09
1.9074e-07
2.87319e-08
1.39477e-07
0
1.019e-08
5.43895e-08
1.821e-08
1.00346e-08
4.12489e-08
4.13248e-08
9.13715e-08
3.85478e-08
2.96483e-08
6.4799e-08
2.19549e-08
8.33607e-08
4.4391e-08
4.52393e-08
1.13101e-08
3.66727e-08
1.23335e-08
5.74466e-08
4.39568e-09
0
0
0
0
0
9.47447e-08
0
0
0
0
0
0
0
0
0
6.47549e-08
1.23946e-07
3.81501e-08
2.65699e-08
4.2952e-08
1.10308e-07
1.26518e-07
5.61449e-08
1.52715e-07
5.44108e-08
1.91733e-07
1.33479e-07
6.27656e-08
1.39287e-08
1.09663e-07
7.47674e-08
1.539e-07
1.94256e-09
1.08011e-07
2.53917e-08
1.58282e-07
1.27633e-07
1.06068e-07
6.28342e-09
2.81884e-08
3.27618e-08
0
7.40235e-08
1.35433e-08
1.57281e-08
5.34735e-08
1.63506e-07
0
0
5.57036e-08
4.69353e-08
9.70488e-08
1.18746e-07
2.12343e-09
1.20765e-07
7.50846e-08
0
0
3.1451e-08
0
2.6997e-08
6.8162e-09
0
3.06215e-08
0
0
0
0
0
0
0
0
0
0
0
6.35049e-08
4.24595e-08
1.43774e-07
1.65017e-07
9.23391e-08
0
1.24918e-07
1.4773e-07
1.15774e-07
2.14146e-07
1.92165e-08
8.16187e-08
3.35907e-08
1.27502e-07
1.75281e-07
7.39741e-08
5.71592e-08
7.5067e-08
7.02197e-08
4.36928e-08
1.92015e-08
1.5631e-07
7.39217e-08
6.68448e-08
2.31156e-08
1.27261e-08
2.47785e-08
4.28345e-08
1.14566e-07
8.30305e-08
0
8.98245e-08
2.35911e-08
9.49455e-08
4.25374e-08
0
1.33039e-07
3.16442e-08
3.44091e-08
6.3401e-08
5.21096e-08
9.93524e-08
2.52378e-08
4.49418e-08
0
5.8731e-08
8.5856e-08
1.55611e-08
6.38562e-08
0
0
0
0
0
0
0
0
0
0
2.50767e-07
3.27798e-08
0
8.66549e-08
1.40786e-07
1.17438e-07
1.48295e-08
0
2.19564e-07
5.75319e-08
8.2003e-08
1.15571e-07
1.89147e-07
1.4217e-07
4.61307e-08
1.05722e-07
6.02829e-09
9.86436e-08
0
6.13278e-08
3.8018e-08
0
6.82533e-08
7.69797e-09
2.1412e-08
8.67194e-08
4.14401e-08
3.60579e-08
9.20446e-08
0
2.08872e-09
8.69438e-08
3.53721e-08
3.94148e-08
1.22601e-07
5.56024e-08
2.1024e-08
1.2078e-07
1.78432e-08
1.18611e-07
2.57929e-08
1.0814e-07
1.12704e-07
7.10617e-08
1.77898e-07
1.0612e-07
1.17407e-07
0
0
0
1.01227e-07
0
0
0
0
0
0
0
0
0
3.48049e-07
1.34002e-07
7.94038e-08
2.27347e-07
7.23347e-08
1.77624e-07
1.21196e-07
2.32117e-07
6.49563e-08
8.10369e-08
8.70611e-08
9.02866e-08
4.81821e-08
1.85099e-07
1.82991e-07
7.68746e-08
0
2.84455e-07
0
7.04225e-08
5.10633e-08
5.27327e-08
1.13569e-07
6.0703e-08
0
2.51447e-08
7.27134e-09
1.77507e-08
2.00875e-08
2.37222e-08
0
0
2.1744e-07
5.60523e-09
5.43914e-08
6.59992e-08
1.24954e-07
1.07719e-07
3.31452e-08
0
5.3614e-08
7.28487e-08
1.17659e-07
8.89639e-08
5.86072e-08
7.64662e-09
6.8261e-08
0
0
0
9.01372e-08
0
0
0
0
0
0
0
0
0
1.02802e-07
2.39545e-08
1.17254e-07
5.62041e-08
1.08789e-07
1.05341e-07
1.78433e-07
1.33405e-07
6.98379e-08
1.00397e-07
5.89318e-08
2.45904e-07
1.29522e-07
3.89909e-08
0
3.50192e-07
1.75959e-07
6.39189e-08
1.15436e-08
1.78871e-08
1.44781e-08
7.97527e-08
5.31967e-08
4.89713e-08
1.0213e-07
0
1.77929e-08
2.75717e-07
4.45873e-08
4.73338e-08
8.78069e-08
6.499e-08
2.83919e-08
5.90791e-08
8.68047e-08
3.09106e-10
1.00727e-07
3.55937e-08
2.08856e-08
0
1.51571e-08
1.77343e-08
4.20514e-08
5.81911e-08
1.00701e-07
8.82247e-08
4.65971e-08
0
7.57927e-08
0
1.00349e-07
0
0
0
0
0
0
0
0
0
2.11449e-07
1.42598e-07
4.61019e-08
9.73589e-08
1.47454e-07
1.18321e-07
3.14788e-08
4.53681e-09
5.20509e-08
1.58525e-08
9.69753e-08
3.92987e-08
2.9824e-08
1.85468e-07
6.12017e-08
9.12189e-08
5.08403e-08
1.44552e-07
1.0937e-07
2.12651e-07
3.84659e-08
0
5.22199e-08
2.48386e-07
2.25812e-07
5.00322e-08
1.44056e-08
9.89161e-08
9.49367e-08
6.49101e-08
3.8546e-08
9.81394e-08
1.4614e-07
1.21445e-07
1.31449e-07
0
3.32281e-08
1.981e-07
2.05413e-08
7.71704e-08
6.58409e-08
4.97109e-08
1.72128e-07
8.31285e-08
1.68381e-07
1.67701e-07
0
8.53862e-08
0
0
0
0
0
0
0
0
0
0
0
0
1.70367e-07
1.65493e-07
4.52645e-08
1.33056e-07
1.27492e-07
1.10382e-07
6.13491e-08
9.30237e-08
3.00901e-07
3.90982e-08
1.13165e-07
1.98444e-07
1.51693e-07
2.76445e-07
1.15994e-07
6.05805e-08
4.02966e-08
5.5476e-08
6.5265e-08
3.8474e-08
6.12735e-08
2.93909e-08
8.09558e-08
7.76256e-08
3.25567e-08
1.60669e-08
4.80357e-08
3.43265e-08
1.23834e-07
2.9465e-08
3.85205e-08
3.8602e-08
2.09814e-07
1.56684e-07
1.36115e-08
0
8.44173e-08
1.67171e-07
5.43229e-08
1.15301e-07
0
0
1.64805e-07
0
7.98171e-08
0
9.63278e-08
0
8.32757e-08
0
0
0
0
0
0
0
0
0
0
0
1.05528e-07
9.79638e-08
3.2704e-08
3.73548e-08
1.53082e-08
5.99212e-08
5.52109e-08
1.93825e-07
1.12698e-07
5.17249e-08
1.64544e-07
1.1089e-07
1.32163e-07
6.33087e-08
1.32048e-07
1.43994e-07
5.29458e-08
1.00406e-07
1.63557e-08
4.9235e-08
4.08642e-08
1.28054e-07
7.04492e-08
9.79563e-09
1.99908e-07
0
1.75517e-07
4.17716e-08
8.296e-08
3.22394e-08
5.15937e-08
3.66735e-07
1.10043e-07
5.11786e-08
1.12505e-07
0
7.47817e-08
9.66136e-08
2.35127e-08
2.03945e-07
1.11249e-07
6.85455e-08
1.74873e-07
0
5.72976e-08
7.68563e-08
8.0538e-08
2.26701e-09
7.90978e-08
1.43723e-07
0
0
0
0
0
0
0
0
0
0
1.03109e-07
1.15668e-07
1.67483e-07
4.19678e-07
7.86781e-08
1.11411e-07
5.51884e-08
5.22314e-08
8.41458e-08
1.38087e-07
2.71624e-07
1.70748e-07
1.60957e-07
4.54602e-08
9.58845e-09
2.99283e-07
1.46967e-07
1.81005e-07
2.25892e-07
3.09819e-08
1.5922e-08
3.2308e-08
0
0
4.11048e-08
8.3186e-08
4.38659e-08
4.67378e-08
6.24039e-08
1.04083e-07
8.82462e-08
1.45494e-07
1.72366e-07
2.30531e-07
9.61218e-09
2.71331e-08
1.00665e-07
2.29894e-08
6.70814e-08
8.22281e-08
0
6.78768e-08
8.86046e-08
3.54471e-08
5.96391e-08
0
1.44791e-07
1.3919e-07
3.65588e-08
0
0
0
0
0
0
0
0
0
0
0
2.37607e-07
7.53455e-08
3.53949e-07
1.27204e-07
6.94393e-08
1.73333e-07
1.58999e-07
1.11543e-07
1.13114e-07
1.58797e-07
9.02993e-08
2.0132e-07
6.50791e-08
3.14586e-07
9.80071e-08
9.03322e-08
1.51032e-08
1.76835e-07
3.9743e-08
1.80959e-07
6.00034e-08
1.59616e-08
7.48342e-08
5.9485e-08
1.43844e-07
6.22492e-08
9.19552e-08
5.35488e-08
3.17758e-08
1.1088e-07
1.82793e-07
1.12038e-07
2.80818e-07
9.04838e-08
3.32794e-09
1.10987e-08
1.29976e-07
4.81699e-08
3.5921e-08
1.65992e-07
3.05229e-09
2.53639e-07
1.0981e-07
0
5.06067e-08
2.0665e-07
7.1915e-08
1.4398e-07
1.61869e-07
0
0
0
0
0
0
0
0
0
0
0
4.84225e-08
0
1.73823e-07
3.25079e-07
9.69541e-08
6.95859e-08
2.9074e-07
5.89015e-08
9.93368e-08
1.79957e-07
5.13458e-08
1.27372e-07
8.35412e-08
1.44971e-07
9.77104e-08
0
4.90037e-08
2.4298e-08
2.64368e-08
7.56163e-08
6.23636e-08
3.12842e-08
7.7798e-08
3.86376e-08
8.68944e-08
1.50167e-07
1.8538e-07
8.68647e-08
1.06338e-07
2.20408e-08
1.24444e-07
1.31787e-07
7.0212e-08
8.80988e-08
1.93957e-08
2.27471e-08
5.06227e-08
1.52044e-07
1.00438e-07
0
1.14999e-07
2.6391e-07
0
0
1.20407e-07
1.55977e-07
7.37049e-08
1.18736e-07
0
0
0
0
1.52388e-07
0
0
0
0
0
0
0
9.17304e-08
1.29357e-07
1.45622e-07
2.73071e-07
1.5468e-07
1.04856e-07
5.01926e-08
2.76849e-08
6.00982e-08
2.02931e-07
7.19224e-08
1.61797e-07
1.0345e-07
7.48548e-08
2.36367e-08
2.11714e-07
1.61819e-07
4.98078e-08
8.66079e-08
4.19582e-08
1.25013e-07
1.53019e-07
1.23943e-07
1.66077e-07
8.11819e-08
1.4327e-07
1.20722e-07
1.15466e-07
8.90565e-09
3.93777e-08
4.41948e-08
9.51094e-08
1.05655e-07
4.19868e-08
1.93865e-08
3.17809e-08
1.07277e-07
0
1.84508e-07
1.54523e-07
7.03323e-08
1.32933e-07
7.33638e-08
4.03769e-08
2.6763e-07
1.27961e-09
1.76104e-07
8.07642e-08
0
0
2.82723e-07
0
0
0
0
0
0
0
0
0
4.45411e-08
9.72052e-08
1.47338e-07
6.15481e-08
1.61354e-07
7.14273e-08
2.38837e-07
3.18011e-07
1.02888e-07
3.31431e-07
1.22704e-07
2.09295e-07
1.49297e-07
1.93998e-07
4.01314e-08
1.40559e-07
5.88601e-08
6.14965e-08
6.06469e-08
4.32769e-08
1.21194e-07
2.19851e-07
3.59336e-07
6.03789e-08
5.49057e-08
1.09198e-08
6.23115e-08
4.10329e-08
2.98244e-08
4.03815e-08
4.29301e-09
2.90159e-07
1.21645e-07
1.65127e-07
3.17959e-07
2.03548e-07
5.69029e-08
1.31925e-07
6.4644e-08
0
6.4248e-08
1.08311e-07
6.85409e-08
8.57663e-08
0
0
0
0
0
3.73307e-07
5.84771e-08
1.14121e-07
0
0
0
0
0
0
0
0
3.29141e-08
2.74762e-07
9.04867e-08
9.69123e-08
2.43079e-08
2.93961e-07
1.27082e-07
2.82874e-07
7.84566e-08
1.50691e-07
3.27392e-07
1.39183e-07
1.15083e-07
1.7519e-07
1.61034e-07
9.03626e-08
6.49363e-08
1.02541e-07
1.52126e-07
0
4.28934e-08
1.91723e-07
0
2.67368e-08
2.35645e-08
6.24711e-08
2.40508e-07
7.89605e-08
5.80136e-08
2.29284e-08
8.9825e-08
1.03224e-08
1.23244e-07
0
2.11677e-07
1.04961e-07
2.84853e-08
2.76864e-07
1.40579e-07
2.60805e-07
1.63433e-07
8.59314e-08
3.23395e-08
2.52618e-07
5.83996e-08
8.13922e-08
0
0
1.91899e-07
1.55957e-07
0
0
0
0
0
0
0
0
0
0
0
5.80033e-08
1.39986e-07
1.74921e-07
2.2383e-07
1.05136e-07
3.0972e-07
1.08193e-07
2.49963e-07
1.15196e-07
1.08938e-07
1.56198e-07
3.36359e-07
2.02751e-07
1.44343e-07
7.49508e-08
2.32395e-07
2.04314e-07
1.64182e-07
8.34576e-08
6.51836e-08
4.13406e-08
5.09628e-08
1.06153e-07
3.84495e-08
1.10992e-07
1.17027e-07
0
2.17276e-07
4.34499e-08
1.06806e-07
0
1.29668e-07
4.23534e-08
1.1729e-07
1.00727e-07
0
0
2.45871e-07
0
1.74103e-07
2.15571e-07
0
1.63688e-07
1.38725e-08
6.58876e-08
0
0
0
0
0
0
0
0
0
0
0
0
0
0
1.34943e-07
7.85872e-08
1.42254e-07
2.6882e-07
2.65201e-07
2.46944e-07
3.21156e-07
2.31772e-07
2.02711e-07
3.37102e-07
8.66369e-08
1.97541e-07
8.60737e-08
2.21118e-07
5.33267e-08
1.50297e-07
5.17487e-08
8.8112e-08
8.50055e-08
8.61337e-08
1.25171e-07
1.5607e-07
9.50681e-08
7.62266e-09
1.03181e-07
1.07917e-07
1.55406e-07
1.08256e-07
4.99585e-08
4.01961e-08
5.36808e-08
3.75077e-08
1.20975e-07
8.41007e-08
1.2657e-07
6.16635e-08
9.02538e-08
9.27527e-08
1.02248e-07
0
2.60233e-07
1.50547e-07
3.46275e-08
2.64045e-07
3.24791e-08
1.72899e-07
0
1.27096e-07
0
0
0
0
0
0
0
0
0
0
0
0
5.69555e-07
7.13668e-08
1.02864e-07
6.49377e-08
1.47734e-07
1.12492e-07
2.16937e-07
1.54468e-07
7.77994e-08
1.14973e-07
2.83677e-07
3.85563e-08
1.63507e-07
4.03191e-08
1.63016e-07
7.05124e-09
1.26444e-07
1.43078e-07
1.64032e-08
8.65582e-08
8.21147e-08
7.38625e-08
7.6996e-08
3.53139e-08
9.57123e-08
9.53012e-08
1.21418e-07
7.49541e-08
6.66652e-09
3.77604e-08
2.79443e-07
5.68566e-08
1.81979e-07
1.86495e-08
1.91787e-07
8.44975e-08
3.28696e-08
0
7.57511e-08
1.22406e-07
1.38682e-07
3.08361e-09
3.90059e-08
0
3.32419e-08
1.78902e-08
1.74949e-07
1.5765e-07
0
0
0
0
0
0
0
0
0
0
0
0
0
2.31696e-07
3.52937e-07
5.89577e-08
7.53418e-08
1.23657e-07
1.60119e-07
3.77182e-07
2.9485e-07
1.47057e-07
4.00944e-07
2.7318e-07
2.38695e-07
2.7802e-08
2.40747e-07
1.60345e-07
9.95812e-08
1.9042e-07
0
3.45692e-07
2.89396e-08
7.17666e-08
1.59432e-07
1.40535e-07
2.66822e-08
1.53342e-08
1.81149e-08
1.11728e-07
4.29966e-08
5.18665e-08
1.53551e-07
9.14382e-08
3.37526e-08
2.44521e-08
3.55428e-08
1.14179e-07
1.40764e-07
2.51499e-07
1.33203e-07
1.78514e-07
5.4314e-07
5.63371e-08
0
2.3977e-07
3.06214e-07
2.51491e-07
0
4.17353e-08
7.38461e-08
0
0
0
0
0
0
0
0
0
0
0
1.63007e-08
7.4824e-08
8.51391e-08
8.08518e-08
2.26281e-07
6.00477e-08
1.30782e-07
2.42725e-07
1.28628e-07
2.2902e-07
2.21413e-07
1.17732e-07
1.34746e-08
9.16426e-08
1.85217e-07
1.57035e-07
1.7962e-07
2.10528e-07
1.60509e-07
2.46347e-07
1.31293e-07
1.01024e-07
9.38157e-08
2.72822e-08
8.79248e-08
1.62388e-07
5.5766e-08
9.52726e-08
7.84102e-08
5.4071e-08
1.93164e-07
1.12311e-07
1.08875e-08
7.21961e-08
1.61054e-07
2.03528e-07
3.61149e-08
1.70958e-07
9.61318e-08
4.29055e-07
4.22053e-07
0
9.42378e-08
1.0255e-09
4.39499e-08
1.08256e-07
0
0
0
1.8824e-07
0
0
0
0
0
0
0
0
0
0
0
2.8929e-07
1.19389e-07
1.26456e-07
1.70245e-07
3.94247e-08
1.50955e-07
2.60895e-07
9.13001e-08
6.14028e-08
7.72961e-08
6.73656e-08
2.92571e-07
4.97158e-08
4.40321e-07
1.07356e-07
1.34543e-07
1.79386e-07
6.45785e-08
9.06773e-08
8.65183e-08
2.06781e-07
1.94339e-07
1.83704e-07
7.41537e-08
3.83329e-07
2.09821e-07
9.66847e-08
1.20444e-07
1.54965e-07
1.75043e-07
9.56264e-08
1.00444e-07
6.81092e-08
7.25476e-08
1.37622e-07
5.72362e-08
6.73108e-08
5.77412e-08
8.42893e-08
1.25861e-07
0
2.16022e-07
5.89708e-08
1.16308e-08
2.98352e-07
0
0
0
0
0
0
0
0
0
0
0
0
0
0
0
1.45785e-07
3.02767e-07
1.88115e-07
4.0699e-08
1.69174e-07
3.20647e-07
2.43491e-07
1.69652e-07
1.9442e-07
1.96348e-07
3.27465e-07
2.72957e-08
8.87262e-08
1.06786e-07
1.14777e-07
1.27463e-07
1.70959e-07
9.7145e-08
2.01635e-08
7.46744e-08
5.04008e-08
1.56717e-07
1.65571e-07
8.6466e-08
7.93502e-08
1.25215e-07
7.82404e-08
9.21081e-08
1.19703e-07
3.09298e-07
6.25728e-08
1.10029e-07
1.54261e-08
2.09549e-07
9.00492e-08
3.9885e-08
1.29533e-07
1.57087e-07
1.45138e-07
1.45595e-07
0
0
1.86245e-09
2.35097e-07
1.81309e-07
0
0
0
0
0
0
0
0
0
0
0
0
0
0
0
1.13088e-07
1.18187e-07
8.10317e-08
1.3066e-07
2.39581e-07
1.8454e-07
1.54618e-07
2.03584e-07
1.8623e-07
6.51135e-08
2.06138e-07
2.56277e-07
1.33067e-07
1.15504e-07
1.29811e-07
6.8378e-08
9.9601e-08
1.0554e-07
2.08369e-07
8.31107e-08
1.31576e-07
8.39796e-08
5.17162e-08
2.82902e-07
4.91615e-08
1.01813e-07
1.26429e-08
9.82472e-08
1.63626e-07
1.78288e-07
1.22135e-07
5.06934e-08
2.84988e-07
5.46411e-08
7.17481e-08
7.82829e-08
7.77191e-08
5.1543e-08
1.36078e-07
2.17369e-07
1.54284e-07
2.58781e-07
1.35183e-07
1.24309e-07
0
0
0
0
0
0
0
0
0
0
0
0
0
0
0
0
2.08887e-07
2.09578e-07
1.62633e-07
8.02073e-08
9.51685e-08
1.33561e-07
2.14615e-07
3.95571e-07
2.08763e-07
1.1253e-07
1.24862e-07
1.61466e-07
2.1004e-07
3.27712e-07
2.35219e-07
3.2769e-07
4.12357e-07
2.78758e-08
2.03536e-07
3.86358e-08
5.67659e-08
8.58469e-08
4.11855e-08
2.24933e-07
1.3693e-07
1.06875e-07
2.78913e-08
8.38298e-08
2.28061e-08
7.38416e-08
2.44417e-07
4.65128e-08
4.2768e-08
1.32142e-07
5.19166e-08
4.19606e-08
1.48007e-07
5.45466e-08
1.73639e-07
3.41182e-07
1.76592e-07
6.6768e-08
3.31985e-07
1.10196e-07
0
0
0
1.57325e-07
0
0
0
0
0
0
0
0
0
0
0
0
9.19591e-08
7.42791e-08
1.42408e-07
1.86002e-07
1.33573e-07
4.11756e-07
2.36166e-07
1.24954e-07
1.92332e-07
2.14459e-07
5.68614e-07
1.26407e-07
6.74866e-08
1.40519e-07
5.19048e-08
2.35835e-07
2.05787e-07
8.90945e-08
6.33672e-08
2.068e-07
1.22562e-07
2.92261e-08
4.71786e-08
1.06977e-07
1.04699e-07
2.02499e-07
2.61768e-08
1.56715e-07
4.85658e-08
1.25341e-07
7.62684e-08
3.45372e-07
6.22493e-08
1.56696e-07
1.06315e-07
3.06019e-07
8.2201e-08
4.76181e-08
0
1.84266e-07
1.29424e-07
5.41074e-08
0
0
6.54841e-08
0
0
0
0
0
0
0
0
0
0
0
0
0
0
0
3.98663e-07
1.72612e-07
1.27538e-07
2.2886e-07
2.2757e-07
2.74997e-07
2.05224e-07
2.33142e-07
3.59831e-07
1.94023e-07
1.53804e-07
2.1545e-07
8.41707e-08
2.13171e-07
1.8164e-07
7.7275e-08
1.01015e-07
2.99655e-07
8.37383e-08
1.63992e-07
1.68547e-07
3.84756e-08
9.95534e-08
6.03755e-08
5.19772e-08
3.50108e-08
1.03029e-07
9.56787e-08
1.20805e-07
1.0004e-07
1.20662e-07
1.33779e-07
2.06409e-08
2.86106e-07
3.71214e-08
6.40247e-08
8.97625e-08
2.18965e-07
1.15528e-07
5.0208e-08
3.04592e-07
0
1.17584e-07
2.7949e-07
5.07335e-07
8.49327e-08
1.86336e-07
0
0
0
0
0
0
0
0
0
0
0
0
0
1.64698e-07
7.88836e-08
1.65067e-07
3.42863e-07
1.72291e-07
1.93948e-07
8.06011e-08
2.3623e-07
1.65361e-07
1.3079e-07
5.97964e-08
1.91628e-07
2.42951e-07
1.69231e-07
4.5975e-08
4.31679e-08
1.42571e-07
6.91832e-08
9.92191e-08
6.9974e-08
2.11302e-07
6.96112e-08
9.69704e-08
2.39867e-07
8.67348e-08
9.43877e-08
7.31694e-08
8.8117e-08
3.53578e-08
2.68974e-07
1.85835e-07
8.89383e-08
1.16542e-07
1.3436e-07
8.31692e-08
5.7029e-08
1.09662e-07
9.468e-08
2.84848e-08
2.69294e-07
4.14174e-08
1.58635e-07
1.46726e-07
2.38491e-07
1.04993e-07
3.36611e-07
1.35556e-07
0
0
0
0
0
0
0
0
0
0
0
0
0
2.6472e-08
3.49911e-07
8.92144e-08
1.60592e-07
2.88754e-07
3.84736e-08
4.05306e-07
1.36106e-07
3.84535e-07
3.08068e-07
3.78113e-07
1.94611e-07
1.48121e-07
1.51362e-07
3.83119e-07
2.62104e-07
1.64058e-07
7.73256e-08
2.84684e-07
5.44633e-08
1.76435e-07
1.33793e-07
1.85624e-07
0
4.90983e-08
4.83377e-08
1.4377e-07
8.5241e-08
0
2.67919e-07
1.54907e-09
4.73147e-08
1.032e-07
2.52552e-07
1.53891e-07
9.16949e-08
2.21156e-07
9.29354e-08
1.25575e-07
1.0559e-07
2.1011e-07
1.12274e-07
3.18619e-07
9.56266e-08
1.62383e-07
0
0
1.02455e-07
0
0
0
0
0
0
0
0
0
0
0
0
8.79378e-08
8.01875e-08
6.38807e-08
4.96671e-07
1.51185e-07
6.40063e-08
4.61948e-08
2.01062e-07
1.09315e-07
2.26815e-07
2.43684e-07
2.77938e-07
2.71171e-07
2.47823e-07
1.48635e-07
3.91273e-08
1.70515e-07
1.29766e-07
1.06049e-07
9.08544e-08
3.33276e-07
2.55898e-07
7.17549e-08
2.90827e-08
1.92151e-07
5.815e-08
5.69981e-08
9.38405e-08
1.83844e-07
6.46587e-08
9.94917e-08
9.13599e-08
2.70932e-08
1.15115e-07
6.8265e-08
7.97277e-08
1.83227e-07
1.327e-07
9.15542e-08
6.57393e-08
2.14695e-07
7.06414e-08
8.75215e-08
2.20777e-07
4.90777e-09
7.08085e-08
1.80262e-09
8.27625e-08
0
0
0
0
0
0
0
0
0
0
0
0
3.70635e-07
1.26133e-07
2.5406e-07
7.4122e-08
2.8351e-07
1.41963e-07
1.35989e-07
3.16758e-07
5.06036e-08
2.22055e-07
1.85379e-07
2.29117e-07
1.7011e-07
2.47964e-07
0
1.46508e-07
2.96348e-07
1.6472e-07
7.58838e-08
4.64321e-07
2.29167e-07
1.85954e-07
1.57617e-07
5.17542e-08
1.69076e-07
5.50908e-08
9.75636e-08
8.98382e-08
1.74365e-07
2.4947e-07
2.67395e-08
9.03232e-08
1.36853e-07
1.4897e-07
1.2245e-07
6.19071e-08
2.11098e-07
1.14655e-07
1.17999e-07
9.29168e-08
3.52049e-07
0
0
8.79137e-08
1.37845e-07
6.68905e-08
1.5685e-07
8.08623e-08
0
0
0
0
0
0
0
0
0
0
0
0
1.74332e-07
2.30991e-07
1.31646e-07
2.52596e-07
6.56105e-08
1.83405e-07
1.23152e-07
2.97016e-07
3.42401e-08
3.67956e-07
2.24442e-07
1.41323e-07
1.81552e-08
2.04959e-07
1.72961e-07
9.62789e-08
2.48267e-07
7.852e-08
6.83892e-08
1.44392e-07
1.31658e-07
1.47353e-07
4.13853e-07
1.28383e-07
1.61098e-07
1.46742e-07
1.64429e-07
2.02433e-08
4.61627e-08
8.45551e-08
3.90284e-08
1.30564e-07
1.36282e-07
4.6734e-08
8.83657e-08
8.31602e-08
1.90686e-07
7.12604e-08
1.53669e-07
0
1.15775e-07
0
8.96519e-08
1.38664e-07
1.74483e-07
1.50126e-07
1.3535e-07
0
0
0
0
0
0
0
0
0
0
9.40362e-09
0
1.90489e-08
9.36779e-09
1.33063e-07
3.14425e-07
2.907e-07
1.31848e-07
1.3224e-07
9.88812e-08
2.98545e-07
1.28109e-07
3.176e-07
1.90501e-07
3.02549e-07
2.80079e-07
4.6773e-08
1.24372e-07
2.55379e-07
1.80381e-07
1.12884e-07
6.48148e-08
1.00753e-07
2.41531e-07
2.12741e-07
1.50764e-07
1.61524e-07
1.79768e-08
2.0628e-08
1.35164e-07
2.19544e-08
8.81421e-08
2.31808e-07
2.05275e-07
5.09765e-08
1.7481e-07
1.28295e-08
1.7704e-07
1.28957e-07
1.99822e-07
5.96344e-08
1.00925e-07
1.45682e-07
2.06126e-07
3.48377e-07
1.66226e-07
9.7185e-08
1.56056e-07
1.89157e-07
0
0
1.53541e-07
0
0
0
0
0
0
0
0
0
0
0
2.39502e-07
2.06696e-07
1.14775e-07
2.62601e-07
6.40541e-08
5.34347e-08
1.46767e-07
1.25558e-07
1.94097e-07
2.57321e-07
8.72625e-08
1.08848e-07
4.6614e-08
1.30691e-07
1.30779e-07
1.84325e-07
8.23457e-08
1.22123e-07
9.18247e-08
1.68579e-07
6.1233e-08
1.68693e-07
3.70289e-07
1.30806e-08
6.62242e-08
6.94989e-08
8.42271e-08
7.63957e-08
2.10613e-07
3.00657e-07
2.25863e-07
2.55964e-08
9.85876e-08
1.15999e-07
2.20518e-07
2.06742e-07
7.62964e-08
2.12512e-07
6.51747e-08
9.26517e-08
8.18878e-08
2.83096e-07
2.21123e-07
1.08259e-07
8.00118e-08
1.67796e-07
0
0
0
0
0
0
0
0
0
0
0
0
0
0
2.30699e-07
5.27624e-08
1.19965e-07
2.07402e-07
2.74037e-07
4.5837e-07
1.77242e-07
8.24596e-08
1.21419e-07
1.14698e-07
2.17398e-07
1.97333e-07
1.09448e-07
2.82493e-07
2.84031e-07
1.65747e-07
1.74655e-07
9.12091e-08
2.82384e-07
1.86221e-07
3.39982e-07
3.28726e-08
3.07603e-07
1.07066e-07
3.50926e-08
1.75966e-07
1.51059e-08
1.93391e-07
2.6157e-08
1.31567e-07
1.0948e-07
6.9698e-08
1.19084e-08
1.79343e-07
2.66653e-07
6.04559e-08
7.99501e-08
1.59394e-07
1.07867e-07
2.63716e-08
1.60233e-07
1.45904e-07
4.1022e-08
6.58462e-08
1.03017e-07
5.63085e-08
6.87199e-08
1.40293e-07
0
0
0
0
0
0
0
0
0
0
0
0
2.53862e-07
1.31041e-07
1.37778e-07
1.0768e-07
2.68567e-07
4.03936e-07
8.96508e-08
1.02223e-07
3.02846e-07
1.25332e-07
7.32326e-08
1.02059e-07
2.09402e-07
4.98918e-08
5.96469e-08
2.20949e-07
3.41789e-08
1.74572e-07
6.14399e-08
6.17728e-08
6.1634e-08
2.75583e-08
3.1876e-08