/*--------------------------------*- C++ -*----------------------------------*\
| =========                 |                                                 |
| \\      /  F ield         | OpenFOAM: The Open Source CFD Toolbox           |
|  \\    /   O peration     | Version:  v1906                                 |
|   \\  /    A nd           | Web:      www.OpenFOAM.com                      |
|    \\/     M anipulation  |                                                 |
\*---------------------------------------------------------------------------*/
FoamFile
{
    version     2.0;
    format      ascii;
    class       volScalarField::Internal;
    location    "2.83";
    object      coalCloud1:radT4;
}
// * * * * * * * * * * * * * * * * * * * * * * * * * * * * * * * * * * * * * //

dimensions      [0 0 0 4 0 0 0];


value           nonuniform List<scalar> 
26400
(
2.41611e+10
6.17287e+10
1.21933e+11
3.94217e+10
1.00605e+11
7.91578e+10
1.18077e+11
5.13941e+10
1.21811e+10
7.69301e+10
3.52077e+10
1.09795e+11
4.87533e+09
7.41627e+09
4.92675e+10
1.316e+11
5.67306e+10
5.42741e+10
1.61902e+11
6.47395e+10
3.99253e+10
5.77966e+09
4.56581e+10
4.01712e+11
1.58243e+10
3.32343e+10
1.50264e+11
4.53629e+10
1.91356e+10
1.20138e+10
1.38116e+10
5.11171e+10
1.34231e+11
2.14832e+10
1.52871e+10
2.27192e+11
3.51191e+10
6.43672e+10
0
0
0
8.88059e+10
0
2.80648e+10
0
0
0
0
1.1617e+11
0
0
0
0
0
0
0
0
0
0
0
9.8495e+10
1.83467e+11
2.69227e+11
1.46001e+11
3.67123e+10
6.65042e+10
1.97179e+11
2.09263e+10
3.43863e+10
1.86801e+10
1.01512e+11
4.16627e+10
1.4685e+11
4.09689e+10
1.91277e+11
1.4829e+09
4.48845e+10
4.96275e+09
3.88132e+10
1.18835e+11
6.89877e+10
3.59673e+09
9.54128e+10
2.66613e+10
1.48139e+10
0
9.37056e+10
4.27507e+09
8.55707e+10
7.02506e+09
4.15036e+10
3.21275e+10
0
2.34414e+10
6.11204e+10
0
0
1.40195e+11
4.41235e+10
1.62344e+11
1.36864e+11
0
7.74501e+08
1.36491e+11
0
0
0
1.74223e+11
7.33824e+10
0
0
0
0
0
0
0
0
0
0
0
5.24964e+10
6.08554e+10
1.05732e+11
3.22921e+11
0
6.83459e+10
6.28182e+10
4.10391e+10
2.28924e+10
9.04418e+10
6.86457e+10
0
9.39315e+10
9.87088e+10
5.36515e+11
1.06806e+11
3.60034e+10
6.18759e+10
4.4534e+10
6.57088e+09
1.09822e+10
1.04888e+10
0
4.77573e+10
1.03439e+11
1.80476e+10
6.0131e+10
2.57994e+10
1.56079e+11
3.91089e+10
4.75876e+09
1.2626e+10
4.22868e+10
0
0
1.05803e+11
2.64433e+11
7.09512e+10
4.52008e+10
2.04526e+11
9.1054e+10
7.15526e+10
7.23617e+10
4.00014e+10
1.66416e+11
5.60428e+10
0
0
0
0
0
0
0
0
0
0
0
0
0
0
1.73456e+10
2.89182e+10
8.06312e+10
2.89649e+10
6.22181e+10
5.58685e+10
6.13855e+10
1.75938e+11
4.10042e+10
7.18332e+10
5.60937e+10
6.65928e+09
8.34098e+10
7.34964e+10
1.44024e+10
9.98791e+10
4.81201e+09
4.15397e+11
0
4.3653e+10
6.2837e+09
7.5678e+10
8.36931e+09
2.61463e+10
1.15335e+11
0
1.76578e+10
1.52882e+10
5.5705e+10
4.39479e+10
4.03643e+09
0
4.36906e+10
3.89311e+10
7.52799e+10
1.69041e+10
8.284e+10
1.2624e+10
0
6.99406e+10
3.08126e+10
1.34064e+10
2.08978e+11
3.67172e+11
0
2.2429e+10
5.56597e+11
8.79508e+10
0
0
0
0
0
0
0
0
0
0
0
0
1.19898e+11
4.9381e+10
2.63226e+10
4.94738e+10
3.89754e+10
1.07061e+11
4.73431e+10
1.61416e+11
9.9962e+09
5.30257e+10
6.10284e+10
6.19822e+09
0
1.00456e+11
2.5578e+11
2.78877e+11
9.1224e+09
5.68327e+09
1.57437e+11
8.23646e+09
5.87836e+10
1.22329e+10
7.06495e+10
9.62014e+10
4.22933e+10
4.63249e+11
5.30228e+10
2.66483e+09
7.60058e+10
5.4576e+10
1.53113e+11
2.93672e+10
6.84419e+10
6.14696e+10
9.2637e+09
6.49597e+10
1.74677e+10
0
6.56779e+10
0
3.51128e+10
2.62474e+10
1.04585e+11
2.9909e+11
9.14301e+10
7.54394e+10
0
1.83416e+10
0
0
0
0
0
0
0
0
0
0
0
0
1.1314e+11
1.00735e+11
2.99055e+10
5.02546e+10
1.86138e+11
2.36508e+11
8.59179e+10
2.47917e+11
5.45022e+09
1.56218e+10
8.55311e+10
3.77247e+10
0
3.97536e+10
3.44115e+10
3.5203e+10
0
0
1.48757e+10
1.18407e+11
1.4634e+11
1.10964e+11
4.45025e+10
2.16337e+10
0
0
3.75035e+10
0
2.93279e+09
7.38495e+10
9.50628e+09
8.78889e+09
9.86811e+10
0
2.11597e+10
1.9447e+11
1.5244e+10
1.14067e+11
3.76186e+10
9.65201e+10
7.87013e+09
2.89347e+11
1.17004e+11
0
2.72497e+11
1.42772e+11
0
0
0
0
0
0
0
0
0
0
0
0
0
0
5.49466e+10
1.28976e+11
4.96625e+10
7.5654e+09
1.34711e+10
9.6214e+10
3.07838e+10
8.08275e+10
5.16533e+10
2.99484e+10
3.38468e+10
1.74911e+11
7.34217e+10
5.26143e+10
6.44607e+10
1.46014e+10
1.40895e+11
6.68387e+09
4.31089e+09
6.26333e+10
1.44366e+10
9.91793e+10
0
0
1.41215e+11
9.44976e+10
3.4906e+10
0
9.4069e+09
1.35574e+10
9.4888e+10
1.06703e+10
3.66411e+10
2.07484e+10
5.77579e+10
8.60405e+10
1.65476e+10
0
3.91934e+09
5.46231e+10
3.43476e+10
0
6.01352e+10
1.4133e+10
2.83434e+11
0
0
0
2.30716e+11
0
0
0
0
0
0
0
0
0
0
0
4.54913e+10
8.81237e+10
1.05198e+11
7.76553e+10
6.33224e+10
7.72375e+10
1.82694e+11
6.15447e+10
4.80265e+10
5.38856e+10
3.42217e+10
3.49805e+10
7.94739e+10
2.7266e+11
1.82844e+11
2.8222e+10
1.35761e+11
5.4174e+09
4.56442e+09
2.63307e+10
9.66318e+10
0
3.49277e+09
1.87432e+11
2.2784e+09
2.10452e+10
2.85219e+11
5.04004e+10
0
5.12608e+09
7.34396e+09
3.23884e+10
3.04711e+11
9.52481e+10
1.35742e+11
2.10293e+10
1.57912e+11
1.05038e+11
4.29351e+10
3.00494e+11
4.38114e+10
5.43843e+10
1.56092e+11
3.90683e+10
3.41017e+10
0
0
0
1.14117e+10
0
0
0
0
0
0
0
0
0
0
0
9.04785e+09
3.25818e+10
1.32011e+11
9.97834e+10
2.2466e+10
4.59612e+10
2.36319e+10
2.69701e+10
1.19757e+10
5.13776e+10
7.14096e+10
1.91906e+11
1.3819e+10
3.44962e+11
2.65808e+11
1.47883e+11
1.5044e+11
6.30856e+10
4.77688e+08
3.87964e+10
0
5.83261e+10
1.22044e+10
1.58598e+11
0
6.44113e+10
0
1.15422e+11
3.43051e+10
1.30451e+10
1.0794e+11
5.30295e+09
7.26169e+10
2.19049e+11
0
8.78516e+09
0
2.97948e+10
2.16444e+10
9.16841e+10
6.28232e+10
7.7482e+10
1.22302e+11
5.20774e+10
5.99789e+10
0
0
0
4.08103e+11
0
0
0
0
0
0
0
0
0
0
0
4.33554e+10
8.61126e+10
6.56159e+10
6.36915e+08
1.76781e+10
6.39241e+10
7.77393e+10
2.40056e+11
4.44274e+10
7.69855e+09
8.47571e+10
8.32437e+10
1.23349e+11
1.47057e+11
4.71539e+11
6.40606e+10
4.90518e+10
6.08905e+10
7.19052e+10
5.00705e+10
1.99284e+08
6.27239e+09
2.44146e+11
2.82285e+10
2.20982e+11
0
5.66076e+09
2.27869e+11
1.37478e+11
1.29002e+11
1.27437e+10
6.29147e+10
1.40266e+10
4.70562e+11
7.61704e+10
8.40031e+10
6.33652e+10
1.70369e+10
0
2.55169e+10
0
3.87967e+10
2.89757e+10
5.72992e+10
4.54777e+11
1.54804e+11
2.11962e+11
1.3386e+11
0
0
0
0
0
0
0
0
0
0
0
0
1.00799e+11
1.83195e+11
7.88379e+09
2.76143e+10
1.04828e+11
1.14162e+10
2.34467e+11
6.16387e+10
3.24821e+11
4.88849e+10
2.21104e+10
2.51279e+10
6.16828e+10
1.13874e+11
1.28662e+11
0
7.14048e+09
5.28034e+10
1.02503e+11
7.35386e+10
3.7982e+10
3.22872e+10
3.58958e+10
4.51094e+10
8.71724e+09
4.33869e+10
1.37864e+10
1.17187e+11
3.87956e+10
2.33812e+11
2.68097e+10
9.54924e+09
0
1.59879e+09
1.54939e+10
0
3.38388e+10
0
3.73089e+10
1.29814e+11
7.11743e+10
0
1.453e+11
0
0
9.73131e+10
8.12287e+10
1.22121e+11
0
0
0
0
0
0
0
0
0
0
0
0
3.76141e+11
7.20608e+10
5.36012e+10
2.67264e+10
3.10351e+10
1.55153e+10
1.96098e+10
0
2.27138e+11
5.96581e+10
4.45279e+10
5.22538e+09
1.69506e+11
1.758e+11
1.30375e+11
1.17724e+11
9.00255e+09
3.84869e+11
2.02774e+10
6.05429e+10
1.7608e+10
8.26832e+10
3.07531e+11
2.81874e+10
0
2.4855e+10
4.3875e+10
5.15917e+10
1.68884e+11
5.59165e+10
7.64456e+09
2.03212e+11
1.00994e+10
3.40737e+10
1.35168e+11
4.39606e+09
4.28136e+10
1.66294e+10
5.71902e+10
7.04383e+09
8.25778e+10
0
3.6341e+10
0
0
1.29697e+11
3.63744e+10
0
0
0
1.77023e+11
0
0
0
0
0
0
0
0
0
1.89626e+11
1.10888e+11
1.17841e+11
4.00192e+11
4.34392e+10
8.55597e+10
2.89835e+10
8.29228e+09
4.35704e+10
1.22102e+10
1.72591e+11
4.79059e+09
0
5.61483e+10
5.52075e+10
3.03602e+10
1.2344e+11
6.45307e+09
3.67517e+11
2.81745e+10
2.45555e+10
1.39719e+10
9.45555e+10
0
9.93841e+09
3.09617e+10
6.12241e+10
8.68453e+09
8.51739e+10
2.62564e+11
2.81726e+08
4.17257e+10
3.48253e+10
5.37691e+09
9.25088e+10
1.32053e+10
6.689e+10
0
1.50852e+11
1.80599e+10
1.00601e+11
4.16754e+10
0
4.54837e+10
0
0
4.72377e+10
0
0
0
0
0
0
0
0
0
0
0
0
0
2.09621e+11
9.33408e+10
3.76369e+10
4.40767e+10
1.44123e+11
1.5147e+11
2.42094e+10
1.32004e+10
3.09958e+10
7.99016e+10
1.00989e+11
1.20095e+10
2.01255e+11
1.09424e+11
1.48632e+10
2.97412e+10
4.96573e+09
7.30752e+09
1.8186e+11
8.01731e+10
7.18724e+10
2.56701e+10
1.4489e+10
1.38924e+10
8.52555e+09
1.06473e+11
1.00865e+09
8.06029e+09
0
0
1.89301e+10
4.92476e+09
1.88253e+10
2.16063e+10
5.54777e+10
2.01355e+11
2.06839e+11
8.79072e+10
1.90949e+11
1.31785e+10
0
0
2.35269e+11
0
6.75517e+10
0
0
0
0
0
0
0
0
0
0
0
0
0
0
0
6.5035e+10
8.56941e+10
2.16886e+10
1.79195e+10
6.18735e+10
7.84394e+10
2.35179e+11
7.04474e+10
5.7146e+10
3.57913e+10
8.689e+10
9.12363e+10
4.22693e+09
3.31375e+11
9.61567e+09
1.09779e+11
6.95388e+10
2.83275e+10
0
4.71505e+08
8.17255e+10
8.30372e+10
1.97221e+10
4.74485e+10
7.35322e+10
1.62002e+11
1.31165e+10
9.1032e+10
7.44167e+10
2.10534e+11
1.98701e+10
1.24402e+11
0
1.23846e+10
5.0093e+10
1.02513e+11
3.9713e+11
4.70369e+10
1.05704e+11
8.5351e+10
1.16843e+11
1.15672e+11
1.50557e+11
7.87101e+10
0
0
0
0
0
0
0
0
0
0
0
0
0
0
0
0
1.65593e+11
5.99682e+10
2.14159e+10
9.29372e+09
1.93537e+10
4.05851e+10
1.63982e+11
2.62193e+10
1.59977e+11
0
6.61216e+10
1.96707e+11
2.55486e+10
3.2812e+10
1.27342e+10
1.97232e+11
2.37429e+11
2.38534e+11
6.61742e+10
2.66347e+11
5.46218e+10
5.25587e+10
6.48309e+10
3.8932e+09
1.21139e+10
1.38018e+10
1.17435e+11
6.99713e+10
2.02547e+10
1.39741e+10
2.66469e+09
3.67991e+10
1.81798e+10
1.12084e+10
1.16872e+10
2.60751e+10
0
2.33112e+11
1.58479e+10
6.11589e+10
0
1.46992e+11
2.33421e+09
0
0
0
0
0
0
0
0
0
0
0
0
0
0
0
0
0
3.18291e+10
1.71005e+10
6.07992e+09
1.42505e+11
2.79814e+10
3.68524e+09
6.80487e+10
5.114e+10
5.89412e+10
1.23792e+11
7.97268e+10
1.63599e+11
6.75115e+10
5.18822e+10
8.25978e+09
1.55294e+10
0
8.48823e+10
1.31439e+10
2.83784e+09
4.88079e+10
2.52442e+10
1.57419e+11
1.74278e+10
2.36767e+10
3.79251e+10
2.90427e+11
1.67339e+11
0
5.45062e+10
1.76445e+10
1.23586e+10
5.75051e+10
3.80564e+10
7.75413e+09
1.87264e+10
3.85099e+10
2.35118e+10
4.75713e+10
2.5339e+10
0
6.49832e+10
8.96718e+10
0
0
4.85625e+10
0
1.60406e+10
9.53915e+10
0
0
0
0
0
0
0
0
0
0
0
1.70511e+11
7.04898e+10
1.16621e+10
1.37876e+11
5.06863e+10
2.83173e+10
1.04539e+11
8.62588e+10
5.52088e+10
1.12406e+11
2.09337e+10
6.32483e+10
9.21773e+10
4.22998e+10
2.58964e+11
2.09132e+11
1.3407e+10
2.50779e+11
2.92803e+11
1.32542e+11
4.6839e+10
2.03044e+10
2.33679e+10
0
4.92087e+10
2.85467e+10
6.02433e+10
4.1013e+10
6.7884e+10
3.69236e+10
9.46059e+09
4.79886e+10
3.28651e+10
2.43462e+11
2.18549e+10
2.25393e+11
1.67057e+10
4.63675e+10
2.1573e+10
5.6018e+10
1.23167e+10
0
1.4124e+10
2.80104e+11
0
6.53266e+11
0
0
0
3.44443e+11
5.05151e+10
0
0
0
0
0
0
0
0
0
1.79893e+11
7.69962e+09
8.57846e+10
6.87719e+10
9.44343e+10
3.26372e+10
9.14128e+10
3.78744e+10
6.25246e+10
9.18463e+10
5.6421e+10
1.32337e+11
1.91195e+08
4.58712e+10
3.76716e+10
2.73961e+10
3.4798e+10
1.92832e+11
5.6888e+10
0
5.98628e+10
4.15224e+09
1.65413e+11
1.71816e+10
2.34965e+11
0
9.47154e+09
4.63661e+10
8.72735e+09
6.92061e+09
2.64754e+10
3.30262e+10
7.36208e+10
2.35227e+10
2.4591e+10
6.49866e+10
1.36375e+10
7.52434e+10
4.03315e+10
2.79092e+10
8.66172e+09
2.98043e+10
9.08862e+09
6.76892e+10
5.18728e+09
0
0
0
0
0
1.1983e+11
0
0
0
0
0
0
0
0
0
4.79948e+10
1.26374e+11
2.2763e+10
1.89484e+10
3.17515e+10
9.65508e+10
1.09859e+11
4.02768e+10
1.5949e+11
5.36812e+10
1.76792e+11
1.1272e+11
4.36985e+10
8.03664e+09
9.20797e+10
7.37583e+10
1.96329e+11
1.91699e+09
8.35565e+10
2.16058e+10
2.14444e+11
1.10829e+11
1.01678e+11
3.70838e+09
1.55786e+10
2.18152e+10
0
7.32615e+10
8.06474e+09
7.90135e+09
3.78205e+10
3.13971e+11
0
0
5.90102e+10
3.33469e+10
7.9736e+10
1.32287e+11
1.37525e+09
9.18182e+10
6.23942e+10
0
0
2.28789e+10
0
2.58111e+10
6.55674e+09
0
4.00229e+10
0
0
0
0
0
0
0
0
0
0
0
4.56027e+10
2.5294e+10
1.02765e+11
1.32884e+11
7.78279e+10
0
1.26791e+11
1.57233e+11
9.08019e+10
2.14675e+11
9.27607e+09
5.35488e+10
2.45477e+10
1.20214e+11
3.41262e+11
6.49413e+10
3.81201e+10
9.12439e+10
4.79385e+10
3.42628e+10
1.1267e+10
1.3724e+11
7.02581e+10
7.30557e+10
2.92077e+10
1.0236e+10
1.28232e+10
3.17207e+10
1.00793e+11
4.50327e+10
0
1.00928e+11
1.005e+10
7.71327e+10
2.93536e+10
0
1.32094e+11
1.92745e+10
2.6838e+10
5.80723e+10
3.52489e+10
9.41561e+10
1.80695e+10
6.67162e+10
0
5.53147e+10
1.14669e+11
2.13408e+10
8.36091e+10
0
0
0
0
0
0
0
0
0
0
1.56312e+11
2.48726e+10
0
8.44804e+10
1.32499e+11
9.01534e+10
7.74282e+09
0
1.91574e+11
4.62869e+10
5.28163e+10
1.16218e+11
1.7177e+11
1.0954e+11
3.64517e+10
1.24092e+11
5.62798e+09
7.96114e+10
0
5.71312e+10
2.6855e+10
0
4.4087e+10
5.04054e+09
1.28781e+10
6.80346e+10
2.72893e+10
2.45774e+10
1.26747e+11
0
1.32411e+09
8.17976e+10
2.85341e+10
2.00271e+10
1.24061e+11
4.00013e+10
2.0419e+10
8.36139e+10
9.80143e+09
1.24525e+11
2.42113e+10
1.05117e+11
1.08574e+11
8.88423e+10
2.18444e+11
1.03987e+11
1.77279e+11
0
0
0
1.3583e+11
0
0
0
0
0
0
0
0
0
2.72735e+11
1.41833e+11
5.64927e+10
2.03592e+11
6.30909e+10
2.84061e+11
8.50129e+10
2.28902e+11
3.94514e+10
6.05974e+10
6.66389e+10
6.65072e+10
5.26497e+10
2.39094e+11
2.12597e+11
4.51373e+10
0
6.27348e+11
0
4.55061e+10
3.1919e+10
3.85741e+10
1.50177e+11
3.94406e+10
0
1.68484e+10
3.89499e+09
9.61609e+09
1.18065e+10
1.57593e+10
0
0
2.2782e+11
2.53336e+09
3.28419e+10
7.60521e+10
1.32538e+11
6.69636e+10
2.57204e+10
0
4.34704e+10
5.4065e+10
1.58365e+11
1.12868e+11
6.05431e+10
1.04777e+10
6.94311e+10
0
0
0
1.73741e+11
0
0
0
0
0
0
0
0
0
6.19825e+10
1.11237e+10
8.41128e+10
5.16905e+10
8.86041e+10
9.18145e+10
2.10088e+11
1.2222e+11
3.96878e+10
7.22278e+10
4.00425e+10
2.35771e+11
1.39043e+11
2.52898e+10
0
5.24985e+11
2.41963e+11
4.19869e+10
8.29046e+09
9.76882e+09
6.9652e+09
6.85128e+10
5.60317e+10
4.60198e+10
1.03934e+11
0
9.76341e+09
5.04412e+11
3.16646e+10
2.85396e+10
6.7741e+10
7.4682e+10
2.10108e+10
4.01414e+10
6.51296e+10
1.72914e+08
6.81251e+10
2.90707e+10
1.27767e+10
0
1.16833e+10
1.27847e+10
3.72545e+10
4.62186e+10
9.95111e+10
1.20648e+11
4.96545e+10
0
9.14384e+10
0
1.93262e+11
0
0
0
0
0
0
0
0
0
1.28588e+11
1.13433e+11
2.27909e+10
6.4055e+10
1.01038e+11
8.6581e+10
1.82823e+10
1.6723e+09
6.49754e+10
7.73814e+09
6.913e+10
2.8986e+10
2.86671e+10
1.82598e+11
3.66577e+10
6.31377e+10
3.5014e+10
1.08833e+11
1.11072e+11
2.54336e+11
3.29238e+10
0
5.3261e+10
3.35012e+11
2.51713e+11
4.68099e+10
7.0101e+09
1.23775e+11
7.21861e+10
5.43629e+10
2.26424e+10
8.6974e+10
1.27592e+11
1.07385e+11
1.41179e+11
0
2.06143e+10
1.99441e+11
1.40729e+10
6.14358e+10
7.7786e+10
5.01844e+10
1.87496e+11
9.79879e+10
2.24529e+11
2.25158e+11
0
1.08435e+11
0
0
0
0
0
0
0
0
0
0
0
0
9.14166e+10
1.38433e+11
2.77896e+10
1.15328e+11
9.53092e+10
8.07087e+10
3.5085e+10
8.7969e+10
3.02365e+11
2.7633e+10
1.80177e+11
1.69567e+11
1.15655e+11
2.77407e+11
1.15484e+11
4.57971e+10
2.40844e+10
4.39681e+10
7.40431e+10
4.3559e+10
4.15533e+10
1.93554e+10
9.52986e+10
5.66623e+10
1.978e+10
7.24363e+09
4.82651e+10
1.88614e+10
1.45644e+11
2.26382e+10
4.25661e+10
2.11767e+10
2.96334e+11
1.64007e+11
6.41885e+09
0
5.8963e+10
2.16608e+11
3.93949e+10
8.39091e+10
0
0
1.71561e+11
0
7.35395e+10
0
1.32241e+11
0
1.03554e+11
0
0
0
0
0
0
0
0
0
0
0
6.49614e+10
6.71628e+10
2.18495e+10
2.09357e+10
8.44014e+09
6.56319e+10
4.04141e+10
1.68145e+11
9.85106e+10
3.41861e+10
2.68982e+11
9.47877e+10
1.43372e+11
5.94938e+10
1.07234e+11
1.68703e+11
3.89656e+10
8.39065e+10
8.55466e+09
4.85852e+10
2.18468e+10
1.06283e+11
8.57318e+10
5.93978e+09
1.75314e+11
0
1.86443e+11
3.59338e+10
1.11258e+11
2.09351e+10
4.07598e+10
8.19391e+11
1.39013e+11
4.79423e+10
1.07556e+11
0
6.47332e+10
7.89173e+10
1.53589e+10
1.71489e+11
1.24861e+11
7.87434e+10
2.03376e+11
0
6.21965e+10
9.4627e+10
1.0071e+11
3.08946e+09
1.06928e+11
2.42849e+11
0
0
0
0
0
0
0
0
0
0
6.82398e+10
8.10469e+10
1.50107e+11
7.68113e+11
6.51262e+10
9.32353e+10
2.97556e+10
3.12142e+10
5.80343e+10
1.0637e+11
2.98555e+11
1.34031e+11
1.44795e+11
3.41442e+10
3.62779e+09
3.81163e+11
1.68563e+11
2.16036e+11
3.45171e+11
2.43837e+10
1.17899e+10
2.18843e+10
0
0
3.737e+10
7.70754e+10
2.87235e+10
3.14449e+10
3.6724e+10
6.72538e+10
5.58376e+10
1.4343e+11
1.95101e+11
2.41811e+11
6.85499e+09
2.01355e+10
1.32243e+11
1.54718e+10
5.50743e+10
7.80623e+10
0
1.01904e+11
1.20311e+11
2.90203e+10
6.47181e+10
0
2.44292e+11
1.8159e+11
7.24996e+10
0
0
0
0
0
0
0
0
0
0
0
1.21126e+11
7.48234e+10
5.18914e+11
1.00561e+11
4.70498e+10
2.29879e+11
1.8424e+11
7.34915e+10
8.45654e+10
1.38342e+11
6.20918e+10
1.94042e+11
4.74557e+10
2.91375e+11
6.7116e+10
6.97268e+10
7.7291e+09
1.65885e+11
3.50982e+10
2.8012e+11
4.10679e+10
1.08135e+10
9.42986e+10
5.11215e+10
1.79008e+11
4.80842e+10
1.12444e+11
4.54813e+10
2.5143e+10
8.88582e+10
2.07129e+11
9.28685e+10
3.68891e+11
5.92e+10
2.20889e+09
9.42004e+09
1.72026e+11
4.81117e+10
3.13105e+10
1.53257e+11
3.12867e+09
3.72524e+11
9.23927e+10
0
5.03971e+10
3.99618e+11
9.22904e+10
2.1462e+11
3.20838e+11
0
0
0
0
0
0
0
0
0
0
0
1.78724e+10
0
1.19456e+11
2.92096e+11
6.11316e+10
4.9409e+10
2.30057e+11
3.68229e+10
8.7729e+10
1.46895e+11
2.82388e+10
1.23754e+11
6.84547e+10
1.1003e+11
8.07196e+10
0
3.34752e+10
1.57923e+10
1.85748e+10
6.44524e+10
8.01706e+10
2.50983e+10
7.20103e+10
3.42487e+10
7.77813e+10
1.69305e+11
2.66132e+11
9.6413e+10
1.01594e+11
1.74506e+10
1.26852e+11
1.26162e+11
6.26412e+10
6.22819e+10
1.28667e+10
1.9313e+10
5.37382e+10
2.36523e+11
1.32727e+11
0
1.00431e+11
4.0455e+11
0
0
1.24121e+11
2.10405e+11
9.11253e+10
1.871e+11
0
0
0
0
2.53805e+11
0
0
0
0
0
0
0
3.82091e+10
1.03554e+11
1.07605e+11
3.51224e+11
1.15742e+11
8.72927e+10
4.13137e+10
1.3957e+10
3.76557e+10
1.71617e+11
5.68228e+10
2.10909e+11
9.56365e+10
4.96857e+10
1.55043e+10
2.73885e+11
1.7899e+11
3.49538e+10
6.52082e+10
2.75269e+10
1.50571e+11
1.98976e+11
1.05039e+11
1.69949e+11
9.69798e+10
2.25241e+11
1.04138e+11
1.35339e+11
3.47256e+09
2.70663e+10
4.26189e+10
9.70472e+10
1.14062e+11
2.9467e+10
1.17449e+10
2.34808e+10
7.42575e+10
0
2.94755e+11
1.29461e+11
6.46656e+10
1.31294e+11
7.41957e+10
3.6037e+10
3.05338e+11
1.65211e+09
2.36801e+11
1.03936e+11
0
0
5.01213e+11
0
0
0
0
0
0
0
0
0
2.13711e+10
6.86949e+10
1.11847e+11
3.79241e+10
1.3181e+11
6.04689e+10
2.17925e+11
3.71644e+11
9.33079e+10
4.37751e+11
9.23521e+10
1.64648e+11
1.41615e+11
1.83151e+11
3.55385e+10
1.34051e+11
4.78081e+10
5.23173e+10
3.9948e+10
4.19663e+10
9.68983e+10
2.5128e+11
6.92549e+11
6.89233e+10
3.3707e+10
4.74168e+09
3.71455e+10
2.58011e+10
2.33864e+10
2.24971e+10
1.99543e+09
5.04819e+11
1.45121e+11
1.77333e+11
3.96062e+11
2.37179e+11
4.96252e+10
1.36147e+11
5.35563e+10
0
5.25337e+10
1.20389e+11
6.73144e+10
1.16359e+11
0
0
0
0
0
7.53843e+11
1.09229e+11
1.62343e+11
0
0
0
0
0
0
0
0
1.23709e+10
2.69064e+11
6.04853e+10
5.93926e+10
1.62909e+10
4.83296e+11
8.87448e+10
2.5734e+11
5.44235e+10
1.07303e+11
4.36622e+11
1.81786e+11
8.721e+10
2.06208e+11
1.84099e+11
6.04041e+10
5.57698e+10
1.06898e+11
3.28105e+11
0
3.01289e+10
2.73726e+11
0
1.95408e+10
1.60989e+10
5.55478e+10
3.11971e+11
8.19669e+10
5.04728e+10
1.28187e+10
8.97455e+10
4.40586e+09
1.08783e+11
0
1.96075e+11
1.26542e+11
1.76967e+10
6.4948e+11
1.52995e+11
4.23577e+11
2.19895e+11
8.18466e+10
2.6053e+10
3.57384e+11
6.36137e+10
1.03138e+11
0
0
3.85365e+11
2.70041e+11
0
0
0
0
0
0
0
0
0
0
0
6.29976e+10
1.51331e+11
1.47167e+11
2.31085e+11
7.96933e+10
2.60935e+11
8.91197e+10
2.28289e+11
9.14728e+10
8.56999e+10
1.75458e+11
3.49631e+11
1.57204e+11
1.17464e+11
5.22742e+10
1.98389e+11
1.95772e+11
3.27694e+11
6.95464e+10
5.36759e+10
2.49423e+10
3.745e+10
1.18919e+11
2.97988e+10
9.82972e+10
1.10213e+11
0
2.31975e+11
1.95752e+10
1.00394e+11
0
1.44409e+11
5.17093e+10
8.24237e+10
7.42317e+10
0
0
2.2315e+11
0
1.51723e+11
2.41955e+11
0
2.33664e+11
1.33809e+10
8.19961e+10
0
0
0
0
0
0
0
0
0
0
0
0
0
0
8.07869e+10
5.10741e+10
1.20155e+11
2.29075e+11
2.185e+11
3.20802e+11
2.85738e+11
2.16975e+11
2.10402e+11
6.09972e+11
5.882e+10
2.02634e+11
6.29726e+10
2.00964e+11
3.83103e+10
1.12027e+11
3.72087e+10
1.10247e+11
5.61934e+10
1.0247e+11
8.1388e+10
1.18631e+11
9.83648e+10
3.17068e+09
9.70771e+10
1.13547e+11
1.78309e+11
8.44095e+10
5.28502e+10
2.34542e+10
4.1248e+10
1.80753e+10
8.53644e+10
7.38165e+10
8.3982e+10
5.38326e+10
8.49681e+10
8.09923e+10
9.15135e+10
0
3.01501e+11
1.60177e+11
2.89013e+10
4.17746e+11
3.13435e+10
2.52278e+11
0
2.03695e+11
0
0
0
0
0
0
0
0
0
0
0
0
5.34077e+11
4.43854e+10
6.66805e+10
3.52105e+10
1.04458e+11
8.67966e+10
2.21476e+11
1.62512e+11
4.41118e+10
8.31152e+10
2.64361e+11
4.25993e+10
1.51783e+11
2.48229e+10
1.41308e+11
3.76223e+09
1.37026e+11
1.28721e+11
9.25325e+09
9.98819e+10
6.37723e+10
7.42836e+10
5.52042e+10
2.65025e+10
9.86148e+10
1.01843e+11
1.21715e+11
6.51522e+10
5.83603e+09
2.98113e+10
3.07314e+11
6.62836e+10
2.63891e+11
1.5808e+10
1.34573e+11
6.28919e+10
3.20077e+10
0
6.75393e+10
1.30496e+11
1.49522e+11
3.4987e+09
3.5762e+10
0
3.39244e+10
1.82666e+10
3.35575e+11
2.82934e+11
0
0
0
0
0
0
0
0
0
0
0
0
0
1.99634e+11
4.55353e+11
4.01588e+10
5.42701e+10
1.10132e+11
1.4436e+11
4.85156e+11
3.79699e+11
9.93084e+10
5.26064e+11
3.5137e+11
2.15913e+11
1.38977e+10
2.72457e+11
1.70677e+11
9.89812e+10
2.36681e+11
0
4.48232e+11
2.22644e+10
4.60919e+10
1.56479e+11
1.58354e+11
1.3476e+10
8.4136e+09
1.68635e+10
9.65524e+10
2.88464e+10
4.01593e+10
2.1091e+11
9.18469e+10
1.98685e+10
1.79883e+10
2.379e+10
9.57214e+10
1.31603e+11
3.45421e+11
1.48318e+11
2.14619e+11
7.11796e+11
6.38541e+10
0
4.36582e+11
5.07598e+11
3.62604e+11
0
6.37602e+10
1.12263e+11
0
0
0
0
0
0
0
0
0
0
0
4.22449e+09
6.63518e+10
5.15056e+10
5.29674e+10
2.05683e+11
3.22215e+10
8.22799e+10
2.63066e+11
1.25158e+11
1.94219e+11
2.9005e+11
9.15396e+10
6.76418e+09
6.75685e+10
1.92002e+11
2.06553e+11
2.11451e+11
2.02633e+11
1.89963e+11
3.33146e+11
1.58672e+11
1.30461e+11
7.87786e+10
1.62053e+10
6.19223e+10
2.69679e+11
5.52221e+10
7.1587e+10
1.07368e+11
4.44542e+10
2.31335e+11
8.68175e+10
1.1601e+10
5.38186e+10
1.62762e+11
3.14145e+11
2.67849e+10
2.17934e+11
9.39865e+10
6.14969e+11
4.23726e+11
0
9.57988e+10
1.09557e+09
4.70083e+10
1.57959e+11
0
0
0
3.68331e+11
0
0
0
0
0
0
0
0
0
0
0
3.0204e+11
9.24185e+10
8.40088e+10
1.26535e+11
2.22512e+10
1.37918e+11
2.16639e+11
8.1683e+10
4.41429e+10
4.806e+10
5.8976e+10
3.54469e+11
3.15107e+10
8.20649e+11
1.02014e+11
2.35678e+11
1.89262e+11
5.7323e+10
8.13719e+10
8.51702e+10
2.71027e+11
1.77364e+11
1.81834e+11
5.39166e+10
6.97694e+11
3.35261e+11
1.02509e+11
9.34706e+10
1.49384e+11
1.77424e+11
1.06032e+11
8.43779e+10
4.68645e+10
7.36121e+10
1.36495e+11
4.58723e+10
5.94055e+10
4.51091e+10
9.20762e+10
1.20406e+11
0
3.59637e+11
6.56921e+10
1.24471e+10
4.5375e+11
0
0
0
0
0
0
0
0
0
0
0
0
0
0
0
1.06049e+11
6.03826e+11
1.58057e+11
2.87074e+10
1.60122e+11
3.83749e+11
2.06478e+11
1.55396e+11
2.17738e+11
1.99517e+11
3.93846e+11
2.08704e+10
6.84056e+10
1.22407e+11
8.89988e+10
1.4723e+11
2.30839e+11
1.01923e+11
1.31715e+10
5.38752e+10
3.91013e+10
1.77934e+11
2.10233e+11
1.11364e+11
8.1048e+10
1.5959e+11
1.07946e+11
6.82578e+10
1.61423e+11
6.27774e+11
9.99843e+10
1.16774e+11
8.63781e+09
2.75633e+11
6.89103e+10
3.43884e+10
1.40124e+11
1.97803e+11
1.48602e+11
1.5308e+11
0
0
2.37573e+09
5.37145e+11
2.52496e+11
0
0
0
0
0
0
0
0
0
0
0
0
0
0
0
8.67921e+10
9.35433e+10
5.12294e+10
1.0412e+11
2.04709e+11
1.44414e+11
1.04821e+11
1.6156e+11
1.80531e+11
7.20866e+10
1.83969e+11
2.65592e+11
1.04134e+11
7.81233e+10
1.14265e+11
7.0943e+10
7.2241e+10
1.29887e+11
2.40941e+11
8.35007e+10
1.44192e+11
6.2301e+10
5.61294e+10
3.48969e+11
3.72976e+10
9.48146e+10
6.42283e+09
6.71811e+10
1.82323e+11
2.21381e+11
9.44232e+10
7.21922e+10
2.65682e+11
3.87356e+10
5.21363e+10
6.22073e+10
7.46381e+10
5.55995e+10
1.71788e+11
3.0957e+11
1.51974e+11
4.51809e+11
1.60748e+11
1.69686e+11
0
0
0
0
0
0
0
0
0
0
0
0
0
0
0
0
1.95403e+11
1.66309e+11
1.35028e+11
6.32567e+10
7.49219e+10
9.85731e+10
2.06718e+11
4.55872e+11
1.55826e+11
7.81395e+10
9.28952e+10
2.27587e+11
2.14747e+11
4.43587e+11
3.17639e+11
6.55823e+11
6.86387e+11
1.88488e+10
3.48118e+11
3.60188e+10
6.28566e+10
6.95314e+10
3.17814e+10
2.21698e+11
1.40181e+11
1.14866e+11
1.53655e+10
6.98621e+10
1.1046e+10
5.31419e+10
3.37783e+11
4.1163e+10
4.49652e+10
1.5337e+11
3.87499e+10
6.1819e+10
1.38462e+11
6.14472e+10
2.25575e+11
3.9218e+11
1.88408e+11
8.31567e+10
4.96202e+11
1.31831e+11
0
0
0
2.79234e+11
0
0
0
0
0
0
0
0
0
0
0
0
7.75381e+10
5.78944e+10
1.2904e+11
1.5274e+11
1.18228e+11
5.29431e+11
2.87516e+11
1.04421e+11
2.0136e+11
2.23265e+11
9.36066e+11
1.22794e+11
8.17549e+10
1.21196e+11
3.30771e+10
5.16867e+11
3.06909e+11
7.95944e+10
4.28894e+10
2.17985e+11
1.15074e+11
2.36754e+10
3.16359e+10
1.03752e+11
1.20757e+11
2.7256e+11
1.38533e+10
1.38331e+11
6.10523e+10
9.24863e+10
4.50995e+10
4.22932e+11
5.3292e+10
2.38269e+11
9.65974e+10
3.83414e+11
6.47755e+10
4.99364e+10
0
2.00831e+11
1.59541e+11
5.93192e+10
0
0
7.93457e+10
0
0
0
0
0
0
0
0
0
0
0
0
0
0
0
3.75585e+11
1.95025e+11
8.80537e+10
2.4098e+11
2.44718e+11
2.37961e+11
2.08234e+11
2.00245e+11
3.75117e+11
2.64217e+11
1.39641e+11
1.97906e+11
6.62509e+10
2.54751e+11
1.44668e+11
7.69434e+10
1.33605e+11
2.88242e+11
9.04714e+10
1.7514e+11
1.73066e+11
3.59518e+10
9.76215e+10
4.76378e+10
4.29428e+10
1.85533e+10
1.37565e+11
6.88415e+10
9.30371e+10
1.15212e+11
8.52029e+10
1.55719e+11
1.41282e+10
3.59719e+11
3.45022e+10
5.49394e+10
6.42569e+10
2.06225e+11
1.10398e+11
5.25012e+10
3.68738e+11
0
1.81225e+11
5.42063e+11
9.02428e+11
1.14746e+11
3.74405e+11
0
0
0
0
0
0
0
0
0
0
0
0
0
1.63622e+11
6.23456e+10
1.56208e+11
2.76068e+11
1.46663e+11
1.52658e+11
7.56914e+10
1.77841e+11
1.51611e+11
1.11752e+11
4.83459e+10
2.12798e+11
2.14031e+11
1.50317e+11
4.39514e+10
4.25302e+10
1.16909e+11
4.05383e+10
7.86744e+10
6.4666e+10
2.91467e+11
5.12119e+10
8.86463e+10
2.6267e+11
9.99202e+10
9.84723e+10
4.44917e+10
6.94353e+10
1.81022e+10
2.57315e+11
1.57961e+11
6.62515e+10
1.15167e+11
1.15642e+11
8.84916e+10
4.20895e+10
8.44327e+10
7.84956e+10
2.34171e+10
2.87649e+11
4.77073e+10
1.78941e+11
1.9174e+11
3.46448e+11
1.61544e+11
7.18194e+11
1.64364e+11
0
0
0
0
0
0
0
0
0
0
0
0
0
1.97942e+10
7.12227e+11
6.6174e+10
1.26035e+11
3.23902e+11
2.3652e+10
4.40321e+11
1.51046e+11
3.92434e+11
3.07909e+11
7.10771e+11
1.70053e+11
1.20772e+11
1.34429e+11
4.99709e+11
3.85687e+11
1.68888e+11
6.27227e+10
3.81418e+11
3.51468e+10
2.13942e+11
1.48124e+11
1.61525e+11
0
3.00963e+10
3.03274e+10
1.648e+11
5.26283e+10
0
4.05361e+11
8.71215e+08
2.896e+10
7.88535e+10
3.68429e+11
1.35788e+11
6.71372e+10
2.22645e+11
8.07772e+10
1.13175e+11
1.23471e+11
2.77134e+11
1.05967e+11
5.53579e+11
1.70974e+11
2.28699e+11
0
0
1.55154e+11
0
0
0
0
0
0
0
0
0
0
0
0
6.22316e+10
8.31309e+10
4.09997e+10
8.51551e+11
1.52501e+11
3.47825e+10
3.23443e+10
1.90211e+11
7.88233e+10
1.92176e+11
2.68784e+11
4.97726e+11
2.81086e+11
3.05825e+11
1.57397e+11
3.49096e+10
2.08068e+11
1.41145e+11
8.67557e+10
8.34869e+10
4.43637e+11
2.97855e+11
9.75944e+10
1.65917e+10
2.25782e+11
5.55859e+10
7.40252e+10
5.88813e+10
2.20901e+11
8.24044e+10
7.04071e+10
6.0665e+10
2.1952e+10
8.59825e+10
9.31237e+10
6.56236e+10
2.36793e+11
1.20859e+11
7.46342e+10
5.8391e+10
2.21086e+11
9.17382e+10
8.88454e+10
2.69885e+11
5.33704e+09
9.16728e+10
2.32446e+09
1.1014e+11
0
0
0
0
0
0
0
0
0
0
0
0
3.54297e+11
9.65155e+10
1.97001e+11
6.64369e+10
2.66815e+11
1.24186e+11
1.03089e+11
2.79103e+11
3.12671e+10
2.1079e+11
1.5405e+11
2.28301e+11
2.75757e+11
4.0455e+11
0
1.41154e+11
2.86311e+11
1.98331e+11
7.55069e+10
6.97877e+11
3.58981e+11
2.04286e+11
1.4224e+11
4.08885e+10
1.88126e+11
3.7935e+10
8.38671e+10
9.77394e+10
1.72556e+11
4.08047e+11
1.50455e+10
6.25304e+10
1.52804e+11
1.50717e+11
1.38652e+11
5.47226e+10
2.54684e+11
1.24624e+11
1.01136e+11
7.97281e+10
4.36588e+11
0
0
9.19081e+10
1.78576e+11
8.19847e+10
2.96491e+11
1.09745e+11
0
0
0
0
0
0
0
0
0
0
0
0
1.6429e+11
2.10551e+11
1.1385e+11
3.13078e+11
4.69863e+10
1.54962e+11
9.90817e+10
2.59505e+11
1.8816e+10
4.51347e+11
3.18522e+11
1.33169e+11
1.125e+10
2.10695e+11
2.44725e+11
7.78332e+10
2.67988e+11
7.95099e+10
3.91811e+10
1.40279e+11
1.11067e+11
1.66764e+11
5.82087e+11
1.26593e+11
1.67283e+11
1.51969e+11
2.3265e+11
1.429e+10
3.85429e+10
8.16953e+10
3.95931e+10
1.0461e+11
1.90307e+11
3.25414e+10
8.07381e+10
6.06145e+10
1.89919e+11
5.92894e+10
1.91253e+11
0
1.12488e+11
0
9.30149e+10
1.80726e+11
2.18939e+11
2.0591e+11
1.6614e+11
0
0
0
0
0
0
0
0
0
0
3.20496e+09
0
7.13853e+09
3.92946e+09
1.12771e+11
3.94147e+11
3.89806e+11
8.99574e+10
1.0527e+11
7.54656e+10
3.09298e+11
1.11409e+11
3.27497e+11
2.38972e+11
4.02383e+11
2.75176e+11
4.83062e+10
1.25718e+11
3.10505e+11
2.29017e+11
8.58259e+10
5.28552e+10
1.10334e+11
2.83977e+11
3.81178e+11
1.49967e+11
1.319e+11
1.02015e+10
1.20007e+10
1.31448e+11
1.08106e+10
1.01825e+11
2.28076e+11
2.47945e+11
3.38919e+10
1.90127e+11
1.14195e+10
2.31228e+11
9.35977e+10
2.97957e+11
5.13092e+10
1.20688e+11
1.69923e+11
3.66738e+11
5.0257e+11
2.41152e+11
1.06136e+11
2.14085e+11
2.8622e+11
0
0
2.8294e+11
0
0
0
0
0
0
0
0
0
0
0
1.91832e+11
1.9418e+11
1.10353e+11
3.51593e+11
4.81826e+10
3.31825e+10
1.12964e+11
1.34499e+11
1.67703e+11
2.77759e+11
6.21009e+10
1.03679e+11
3.38938e+10
1.87182e+11
1.49679e+11
3.77512e+11
9.10749e+10
1.00662e+11
9.04455e+10
1.70294e+11
5.37783e+10
2.36556e+11
5.49894e+11
1.13359e+10
5.38455e+10
9.54564e+10
1.09197e+11
7.23255e+10
2.25868e+11
4.4232e+11
3.83494e+11
1.78414e+10
1.21991e+11
9.77776e+10
2.44596e+11
1.68237e+11
6.75639e+10
2.60413e+11
5.82538e+10
1.4311e+11
1.26631e+11
4.68041e+11
2.80016e+11
1.44554e+11
1.13591e+11
2.38373e+11
0
0
0
0
0
0
0
0
0
0
0
0
0
0
2.06531e+11
3.25604e+10
1.05514e+11
2.2684e+11
2.75014e+11
7.93633e+11
1.55533e+11
5.0101e+10
9.85078e+10
8.85741e+10
2.01446e+11
2.01319e+11
9.8086e+10
2.60687e+11
3.11188e+11
2.8411e+11
2.18733e+11
8.1424e+10
6.06926e+11
1.82862e+11
5.49687e+11
2.01838e+10
4.99389e+11
1.42336e+11
2.45077e+10
2.80686e+11
9.22487e+09
2.21029e+11
1.61185e+10
1.28952e+11
1.89097e+11
6.05552e+10
6.29321e+09
1.48237e+11
3.58367e+11
4.2689e+10
7.44803e+10
2.10622e+11
1.55595e+11
2.15468e+10
1.64696e+11
1.66e+11
4.09008e+10
8.32771e+10
1.13592e+11
7.3461e+10
8.64538e+10
2.52615e+11
0
0
0
0
0
0
0
0
0
0
0
0
2.73618e+11
1.04399e+11
1.33142e+11
1.12112e+11
2.44519e+11
4.76466e+11
6.25358e+10
7.35836e+10
3.55666e+11
9.71471e+10
5.83683e+10
9.43397e+10
2.42391e+11
3.03256e+10
7.29267e+10
4.06773e+11
2.17008e+10
1.49935e+11
4.45179e+10
7.67236e+10
4.45682e+10
1.64436e+10
3.82827e+10
5.2266e+10