/*--------------------------------*- C++ -*----------------------------------*\
| =========                 |                                                 |
| \\      /  F ield         | OpenFOAM: The Open Source CFD Toolbox           |
|  \\    /   O peration     | Version:  v1906                                 |
|   \\  /    A nd           | Web:      www.OpenFOAM.com                      |
|    \\/     M anipulation  |                                                 |
\*---------------------------------------------------------------------------*/
FoamFile
{
    version     2.0;
    format      ascii;
    class       volScalarField::Internal;
    location    "2.83";
    object      coalCloud1:UCoeff;
}
// * * * * * * * * * * * * * * * * * * * * * * * * * * * * * * * * * * * * * //

dimensions      [1 0 0 0 0 0 0];


value           nonuniform List<scalar> 
26400
(
2.77052e-11
5.5172e-11
9.0966e-11
2.74e-11
9.18824e-11
5.41973e-11
7.89191e-11
4.49481e-11
1.64477e-11
7.8773e-11
3.65406e-11
9.42529e-11
7.69825e-12
9.87374e-12
4.3609e-11
9.18953e-11
3.78722e-11
4.70291e-11
1.37878e-10
5.70473e-11
3.00223e-11
7.28576e-12
4.13353e-11
1.81853e-10
1.3187e-11
3.66072e-11
8.48995e-11
3.31436e-11
2.73675e-11
1.36462e-11
2.01778e-11
4.47262e-11
9.43424e-11
2.40896e-11
1.46752e-11
1.36889e-10
3.5161e-11
6.05519e-11
0
0
0
6.49098e-11
0
1.50877e-11
0
0
0
0
5.35567e-11
0
0
0
0
0
0
0
0
0
0
0
7.54634e-11
1.20131e-10
1.64003e-10
8.92574e-11
2.89983e-11
5.17103e-11
1.14613e-10
2.48519e-11
3.03764e-11
2.00848e-11
7.529e-11
3.9712e-11
7.93215e-11
3.11138e-11
7.16525e-11
2.25003e-12
3.2464e-11
7.2414e-12
2.64133e-11
8.7975e-11
5.93951e-11
4.53448e-12
7.5709e-11
2.30905e-11
1.23459e-11
0
6.91685e-11
3.59666e-12
3.73938e-11
5.13702e-12
4.44186e-11
3.79932e-11
0
2.30009e-11
5.02998e-11
0
0
1.03571e-10
4.15026e-11
9.73457e-11
5.81721e-11
0
6.44294e-13
8.2396e-11
0
0
0
8.10415e-11
3.3859e-11
0
0
0
0
0
0
0
0
0
0
0
4.36617e-11
3.53272e-11
6.88507e-11
1.67753e-10
0
7.09009e-11
5.93819e-11
4.03044e-11
2.63854e-11
8.07386e-11
5.05369e-11
0
6.29075e-11
8.88872e-11
2.04898e-10
8.72087e-11
4.25425e-11
5.22883e-11
4.35788e-11
9.37878e-12
1.37638e-11
1.45607e-11
0
3.98828e-11
6.82656e-11
2.26544e-11
5.12884e-11
2.17071e-11
8.05259e-11
2.88037e-11
4.74853e-12
1.43481e-11
3.59806e-11
0
0
6.82813e-11
1.42838e-10
6.44023e-11
3.3256e-11
9.71533e-11
3.8714e-11
5.68213e-11
5.6966e-11
3.09395e-11
7.80262e-11
3.80244e-11
0
0
0
0
0
0
0
0
0
0
0
0
0
0
1.76534e-11
2.38509e-11
6.08568e-11
2.50717e-11
5.64737e-11
5.94644e-11
5.93333e-11
1.27525e-10
3.06474e-11
6.41534e-11
6.05275e-11
9.4317e-12
5.35604e-11
6.09226e-11
1.60412e-11
5.68968e-11
6.02941e-12
1.69761e-10
0
3.89638e-11
8.5157e-12
6.87074e-11
1.09738e-11
2.39786e-11
7.11169e-11
0
1.69138e-11
1.59726e-11
4.89941e-11
3.93886e-11
6.07393e-12
0
4.12576e-11
3.72242e-11
6.66713e-11
1.74177e-11
5.90363e-11
1.35173e-11
0
5.18297e-11
2.40212e-11
1.03704e-11
1.0221e-10
1.58979e-10
0
1.28584e-11
1.73908e-10
4.85129e-11
0
0
0
0
0
0
0
0
0
0
0
0
8.37897e-11
4.3589e-11
2.79517e-11
5.52873e-11
3.55567e-11
7.6555e-11
4.77412e-11
1.27082e-10
1.22997e-11
4.57625e-11
6.21636e-11
9.00088e-12
0
7.62599e-11
1.25064e-10
1.27413e-10
1.14224e-11
8.16421e-12
1.17222e-10
1.08663e-11
4.63188e-11
1.38226e-11
6.22074e-11
6.88878e-11
3.17988e-11
1.7042e-10
5.8116e-11
5.14654e-12
5.80308e-11
4.74154e-11
1.04677e-10
2.85996e-11
5.52635e-11
5.67463e-11
7.65692e-12
6.22098e-11
1.78006e-11
0
5.26265e-11
0
2.80566e-11
2.03069e-11
7.5877e-11
1.66979e-10
3.42959e-11
4.32564e-11
0
1.01261e-11
0
0
0
0
0
0
0
0
0
0
0
0
7.87229e-11
1.05407e-10
2.95062e-11
4.0204e-11
1.22608e-10
1.40266e-10
8.26387e-11
1.57053e-10
8.1518e-12
1.61963e-11
7.51327e-11
3.71509e-11
0
3.99276e-11
3.6971e-11
2.79071e-11
0
0
1.13001e-11
8.25018e-11
1.00117e-10
9.93441e-11
3.27515e-11
2.40814e-11
0
0
4.01711e-11
0
4.8375e-12
6.44205e-11
1.28337e-11
1.24714e-11
8.98852e-11
0
1.74906e-11
1.29459e-10
7.83241e-12
5.86173e-11
2.95021e-11
5.40093e-11
6.33295e-12
1.34964e-10
6.37717e-11
0
1.14076e-10
9.04105e-11
0
0
0
0
0
0
0
0
0
0
0
0
0
0
5.93148e-11
1.03784e-10
4.19994e-11
1.02794e-11
7.99842e-12
8.2425e-11
3.14229e-11
7.08027e-11
5.01648e-11
3.28321e-11
3.36918e-11
1.32057e-10
7.18919e-11
3.78481e-11
4.73648e-11
1.56149e-11
7.04334e-11
9.45305e-12
7.15072e-12
5.32082e-11
1.47013e-11
8.72651e-11
0
0
8.58264e-11
7.76422e-11
3.69877e-11
0
1.18393e-11
1.34429e-11
5.90627e-11
1.48747e-11
3.35096e-11
2.34492e-11
5.6029e-11
7.93338e-11
1.86013e-11
0
3.77376e-12
4.01676e-11
2.74277e-11
0
4.03584e-11
9.94567e-12
1.18947e-10
0
0
0
1.23204e-10
0
0
0
0
0
0
0
0
0
0
0
3.33037e-11
7.62091e-11
8.71418e-11
6.74952e-11
4.98776e-11
6.43772e-11
1.25183e-10
6.13087e-11
4.32922e-11
5.00094e-11
3.86747e-11
3.49528e-11
5.1103e-11
1.34437e-10
1.15498e-10
3.04618e-11
7.31133e-11
8.259e-12
7.01829e-12
2.74654e-11
7.36127e-11
0
5.63013e-12
1.17259e-10
2.76531e-12
2.52743e-11
1.85084e-10
3.67403e-11
0
5.0827e-12
4.09955e-12
3.80451e-11
1.63723e-10
7.13188e-11
7.95646e-11
1.97681e-11
1.07698e-10
8.15764e-11
3.84564e-11
1.77291e-10
2.49791e-11
3.71869e-11
8.44277e-11
2.74963e-11
1.94874e-11
0
0
0
6.78707e-12
0
0
0
0
0
0
0
0
0
0
0
1.15777e-11
3.64925e-11
1.02787e-10
7.317e-11
2.13763e-11
4.92049e-11
2.93187e-11
2.57399e-11
1.37355e-11
4.8205e-11
5.66273e-11
1.15361e-10
1.3256e-11
2.26468e-10
1.43076e-10
1.05823e-10
1.03715e-10
5.45865e-11
7.34464e-13
3.00069e-11
0
5.02427e-11
1.50595e-11
1.13755e-10
0
5.24883e-11
0
6.88141e-11
2.74726e-11
1.46604e-11
7.91835e-11
6.09345e-12
5.70373e-11
1.33732e-10
0
1.00289e-11
0
2.53235e-11
2.10127e-11
7.33345e-11
3.93212e-11
5.49321e-11
8.61389e-11
3.69426e-11
3.42816e-11
0
0
0
1.43986e-10
0
0
0
0
0
0
0
0
0
0
0
3.92656e-11
6.91676e-11
5.62388e-11
6.01871e-13
1.47569e-11
5.31612e-11
7.42306e-11
1.85785e-10
4.58501e-11
5.68459e-12
8.02622e-11
4.88172e-11
6.42857e-11
8.60268e-11
1.66283e-10
4.10125e-11
3.80626e-11
5.74357e-11
4.35007e-11
4.19307e-11
4.08043e-13
4.76637e-12
1.23504e-10
2.65985e-11
1.03313e-10
0
8.39946e-12
1.12086e-10
6.86631e-11
9.71148e-11
1.42051e-11
5.31057e-11
1.78213e-11
1.64172e-10
5.80289e-11
7.24662e-11
4.99754e-11
1.75801e-11
0
1.66125e-11
0
3.03178e-11
2.23615e-11
3.87123e-11
1.90856e-10
7.49944e-11
1.24563e-10
6.98301e-11
0
0
0
0
0
0
0
0
0
0
0
0
7.13052e-11
1.08689e-10
7.79442e-12
2.4159e-11
9.58391e-11
1.60861e-11
1.46199e-10
5.36381e-11
1.2005e-10
4.19042e-11
2.59852e-11
3.11324e-11
5.31852e-11
7.65521e-11
7.03929e-11
0
9.74161e-12
4.59443e-11
5.66126e-11
5.68216e-11
3.65362e-11
2.45374e-11
4.46916e-11
4.38982e-11
7.32171e-12
4.80863e-11
1.49549e-11
6.07517e-11
2.94582e-11
1.13502e-10
2.41986e-11
1.07731e-11
0
2.01919e-12
1.61842e-11
0
2.88907e-11
0
3.01981e-11
7.96723e-11
5.58627e-11
0
9.04077e-11
0
0
5.76592e-11
4.19037e-11
6.47239e-11
0
0
0
0
0
0
0
0
0
0
0
0
1.48055e-10
5.13058e-11
5.77534e-11
3.09858e-11
3.51086e-11
1.91076e-11
2.02273e-11
0
1.521e-10
6.50129e-11
4.56746e-11
5.96703e-12
9.2709e-11
1.1248e-10
7.79873e-11
6.12065e-11
1.15243e-11
1.51075e-10
2.48645e-11
4.57088e-11
1.34777e-11
6.529e-11
1.35432e-10
2.4263e-11
0
2.9691e-11
5.19095e-11
5.17768e-11
1.03081e-10
4.39517e-11
9.81655e-12
1.06284e-10
1.22541e-11
3.89075e-11
8.58626e-11
5.11717e-12
4.21508e-11
1.73169e-11
4.7959e-11
3.82754e-12
4.88893e-11
0
2.86699e-11
0
0
6.26142e-11
2.18658e-11
0
0
0
8.41584e-11
0
0
0
0
0
0
0
0
0
8.5308e-11
6.14352e-11
9.38762e-11
2.16702e-10
4.11154e-11
7.4206e-11
3.95465e-11
1.10003e-11
4.76629e-11
1.47399e-11
1.27238e-10
4.94689e-12
0
5.15097e-11
3.78532e-11
3.02373e-11
7.16769e-11
9.3097e-12
1.72671e-10
2.59204e-11
1.50759e-11
1.21075e-11
6.48192e-11
0
1.23259e-11
3.11343e-11
5.43451e-11
1.33001e-11
6.88971e-11
1.09225e-10
4.53797e-13
3.75841e-11
3.81301e-11
6.5821e-12
7.70274e-11
1.46281e-11
5.78231e-11
0
1.12828e-10
1.80449e-11
6.80544e-11
3.1833e-11
0
3.33427e-11
0
0
2.84048e-11
0
0
0
0
0
0
0
0
0
0
0
0
0
1.28997e-10
7.60276e-11
3.9323e-11
5.01546e-11
1.07654e-10
1.13702e-10
2.23685e-11
1.88306e-11
3.307e-11
8.47102e-11
6.90927e-11
1.24024e-11
1.1505e-10
7.52323e-11
1.50355e-11
2.18679e-11
7.76017e-12
1.00973e-11
9.27328e-11
7.52697e-11
5.08827e-11
2.52092e-11
1.72293e-11
1.53281e-11
1.1177e-11
5.90889e-11
1.2628e-12
1.079e-11
0
0
1.83426e-11
4.58193e-12
2.15173e-11
2.37499e-11
3.7721e-11
9.57594e-11
1.10928e-10
5.40306e-11
8.48518e-11
1.22916e-11
0
0
1.61509e-10
0
4.34031e-11
0
0
0
0
0
0
0
0
0
0
0
0
0
0
0
5.88664e-11
7.03167e-11
2.61537e-11
2.26105e-11
4.84592e-11
7.45118e-11
1.50949e-10
5.58559e-11
6.50359e-11
3.8023e-11
8.669e-11
6.51213e-11
3.41864e-12
1.7457e-10
1.18897e-11
7.66819e-11
5.24051e-11
2.98708e-11
0
4.87351e-13
5.93434e-11
7.81978e-11
2.05119e-11
4.2944e-11
5.74296e-11
7.63706e-11
1.80294e-11
7.52988e-11
6.37174e-11
9.07202e-11
1.77967e-11
8.03378e-11
0
1.49444e-11
4.97633e-11
8.02991e-11
1.72599e-10
3.79833e-11
6.08943e-11
5.90309e-11
7.44739e-11
8.74755e-11
1.14282e-10
5.00122e-11
0
0
0
0
0
0
0
0
0
0
0
0
0
0
0
0
1.2973e-10
6.3814e-11
2.55855e-11
1.19206e-11
1.88158e-11
4.32092e-11
1.12187e-10
1.68355e-11
1.3408e-10
0
6.97916e-11
1.37327e-10
2.70118e-11
3.47855e-11
1.45212e-11
1.11824e-10
1.58942e-10
9.89371e-11
5.00936e-11
1.52646e-10
3.90673e-11
5.27392e-11
5.45141e-11
4.02152e-12
1.45911e-11
1.52806e-11
6.0847e-11
5.59416e-11
1.95816e-11
8.80379e-12
2.71265e-12
3.99159e-11
1.79712e-11
1.44043e-11
1.37902e-11
2.95555e-11
0
1.03039e-10
1.67925e-11
5.42841e-11
0
8.04265e-11
1.77181e-12
0
0
0
0
0
0
0
0
0
0
0
0
0
0
0
0
0
3.30594e-11
1.61827e-11
8.26631e-12
1.2511e-10
3.28391e-11
5.75955e-12
5.04232e-11
3.96823e-11
6.56714e-11
8.38158e-11
7.5361e-11
1.05692e-10
5.13403e-11
4.95255e-11
1.10078e-11
1.65295e-11
0
6.53351e-11
1.45009e-11
1.31442e-12
3.99648e-11
2.85589e-11
1.0604e-10
2.08198e-11
2.67982e-11
3.676e-11
1.47731e-10
1.00533e-10
0
3.43503e-11
2.08439e-11
1.42253e-11
4.72945e-11
3.55859e-11
1.01453e-11
2.41351e-11
2.94342e-11
1.24496e-11
4.59782e-11
2.5041e-11
0
3.64329e-11
6.67253e-11
0
0
2.44295e-11
0
8.85797e-12
5.27141e-11
0
0
0
0
0
0
0
0
0
0
0
7.83655e-11
5.23343e-11
1.56411e-11
9.10744e-11
4.8149e-11
3.96747e-11
7.78855e-11
6.78207e-11
6.36174e-11
9.72774e-11
2.25369e-11
5.18158e-11
6.01083e-11
4.51296e-11
1.46305e-10
1.39071e-10
1.56504e-11
1.26374e-10
1.24692e-10
8.54907e-11
4.04125e-11
1.95806e-11
1.44567e-11
0
3.4329e-11
3.09072e-11
4.89264e-11
3.58119e-11
5.38218e-11
4.02538e-11
1.28232e-11
3.76998e-11
2.31329e-11
1.2051e-10
1.93179e-11
1.3231e-10
1.71608e-11
4.14088e-11
1.71065e-11
5.01337e-11
1.12146e-11
0
1.33574e-11
1.62803e-10
0
2.97513e-10
0
0
0
1.61508e-10
2.28827e-11
0
0
0
0
0
0
0
0
0
8.85605e-11
1.20317e-11
8.11625e-11
4.91189e-11
7.16446e-11
3.48754e-11
9.46649e-11
3.6599e-11
6.46657e-11
7.26412e-11
4.72247e-11
1.17536e-10
2.85318e-13
5.06124e-11
4.06841e-11
2.80745e-11
3.29587e-11
1.26999e-10
4.43465e-11
0
3.15823e-11
6.01538e-12
1.32594e-10
1.97788e-11
9.8394e-11
0
7.11844e-12
3.78593e-11
1.24276e-11
6.95181e-12
2.84689e-11
2.86784e-11
6.35829e-11
2.65267e-11
2.05442e-11
4.51626e-11
1.51189e-11
5.80897e-11
3.1033e-11
3.1235e-11
7.8878e-12
2.55833e-11
8.59478e-12
4.05845e-11
3.11377e-12
0
0
0
0
0
6.72493e-11
0
0
0
0
0
0
0
0
0
4.47804e-11
8.61808e-11
2.62092e-11
1.83191e-11
2.97408e-11
7.66129e-11
8.78143e-11
3.88427e-11
1.06576e-10
3.7932e-11
1.33288e-10
9.2613e-11
4.33144e-11
9.57232e-12
7.61633e-11
5.20258e-11
1.07637e-10
1.3567e-12
7.48539e-11
1.76499e-11
1.10836e-10
8.87095e-11
7.37957e-11
4.31964e-12
1.93344e-11
2.25659e-11
0
5.16726e-11
9.31792e-12
1.07483e-11
3.69902e-11
1.15646e-10
0
0
3.89851e-11
3.24513e-11
6.75057e-11
8.32876e-11
1.46701e-12
8.38393e-11
5.23114e-11
0
0
2.18273e-11
0
1.89136e-11
4.78607e-12
0
2.16631e-11
0
0
0
0
0
0
0
0
0
0
0
4.38021e-11
2.91727e-11
9.92829e-11
1.14155e-10
6.39851e-11
0
8.70716e-11
1.03015e-10
8.02008e-11
1.49018e-10
1.30975e-11
5.62008e-11
2.32067e-11
8.86997e-11
1.23442e-10
5.1182e-11
3.93995e-11
5.25299e-11
4.84141e-11
3.0261e-11
1.31563e-11
1.08535e-10
5.14646e-11
4.6574e-11
1.62077e-11
8.83235e-12
1.69225e-11
2.96311e-11
7.96033e-11
5.67764e-11
0
6.2699e-11
1.59971e-11
6.58216e-11
2.93894e-11
0
9.28159e-11
2.17567e-11
2.38252e-11
4.42078e-11
3.59829e-11
6.93334e-11
1.74831e-11
3.17626e-11
0
4.10656e-11
6.06527e-11
1.10224e-11
4.51579e-11
0
0
0
0
0
0
0
0
0
0
1.86157e-10
2.2667e-11
0
6.02581e-11
9.73886e-11
8.11069e-11
1.01318e-11
0
1.52013e-10
3.98438e-11
5.63781e-11
8.03942e-11
1.31108e-10
9.83285e-11
3.19181e-11
7.37538e-11
4.181e-12
6.82656e-11
0
4.25842e-11
2.62249e-11
0
4.69343e-11
5.29669e-12
1.46938e-11
5.99719e-11
2.85143e-11
2.48396e-11
6.45897e-11
0
1.43747e-12
6.0496e-11
2.44121e-11
2.68945e-11
8.54318e-11
3.8307e-11
1.46693e-11
8.32417e-11
1.22278e-11
8.29693e-11
1.79958e-11
7.55581e-11
7.87875e-11
5.00155e-11
1.25311e-10
7.43874e-11
8.32496e-11
0
0
0
7.19031e-11
0
0
0
0
0
0
0
0
0
2.5944e-10
9.31727e-11
5.47441e-11
1.57261e-10
5.01454e-11
1.24433e-10
8.34522e-11
1.61037e-10
4.45873e-11
5.59089e-11
6.01765e-11
6.2349e-11
3.34436e-11
1.29213e-10
1.27759e-10
5.26805e-11
0
2.00164e-10
0
4.84402e-11
3.50274e-11
3.63996e-11
7.93604e-11
4.17374e-11
0
1.73171e-11
4.97016e-12
1.21412e-11
1.37806e-11
1.63462e-11
0
0
1.51565e-10
3.8132e-12
3.73701e-11
4.62479e-11
8.72785e-11
7.4235e-11
2.30103e-11
0
3.73348e-11
5.06518e-11
8.29152e-11
6.2681e-11
4.12485e-11
5.42996e-12
4.80586e-11
0
0
0
6.46986e-11
0
0
0
0
0
0
0
0
0
7.66547e-11
1.6296e-11
8.09031e-11
3.90266e-11
7.52638e-11
7.29657e-11
1.24402e-10
9.23809e-11
4.77871e-11
6.91842e-11
4.0575e-11
1.7071e-10
9.00091e-11
2.68026e-11
0
2.4531e-10
1.23189e-10
4.39325e-11
7.96818e-12
1.22378e-11
9.85967e-12
5.53246e-11
3.70917e-11
3.40087e-11
7.10662e-11
0
1.21775e-11
1.93579e-10
3.0743e-11
3.24584e-11
6.07991e-11
4.54947e-11
1.96598e-11
4.07417e-11
6.01488e-11
2.12395e-13
6.9572e-11
2.4779e-11
1.44077e-11
0
1.0552e-11
1.23288e-11
2.94744e-11
4.06833e-11
7.08724e-11
6.25912e-11
3.29201e-11
0
5.38843e-11
0
7.20998e-11
0
0
0
0
0
0
0
0
0
1.57789e-10
9.85941e-11
3.14396e-11
6.69911e-11
1.01459e-10
8.14918e-11
2.15777e-11
3.0602e-12
3.62097e-11
1.08054e-11
6.6865e-11
2.70782e-11
2.07153e-11
1.2896e-10
4.19908e-11
6.27905e-11
3.50341e-11
9.98889e-11
7.60411e-11
1.48532e-10
2.66909e-11
0
3.64048e-11
1.7408e-10
1.57488e-10
3.4807e-11
9.8282e-12
6.91566e-11
6.57444e-11
4.49938e-11
2.65069e-11
6.8329e-11
1.01643e-10
8.45158e-11
9.19369e-11
0
2.2967e-11
1.38577e-10
1.42482e-11
5.38427e-11
4.64517e-11
3.49948e-11
1.21466e-10
5.87988e-11
1.19458e-10
1.19174e-10
0
6.08083e-11
0
0
0
0
0
0
0
0
0
0
0
0
1.27208e-10
1.14641e-10
3.10315e-11
9.21742e-11
8.80357e-11
7.61867e-11
4.20344e-11
6.46662e-11
2.08738e-10
2.69476e-11
7.90115e-11
1.376e-10
1.04748e-10
1.92291e-10
8.05857e-11
4.18836e-11
2.76708e-11
3.84194e-11
4.55782e-11
2.68659e-11
4.22414e-11
2.02567e-11
5.65411e-11
5.36767e-11
2.23643e-11
1.09379e-11
3.35168e-11
2.35539e-11
8.65835e-11
2.04466e-11
2.69758e-11
2.64865e-11
1.47281e-10
1.09627e-10
9.31512e-12
0
5.85992e-11
1.17725e-10
3.78204e-11
8.03608e-11
0
0
1.16272e-10
0
5.62964e-11
0
6.87213e-11
0
5.94761e-11
0
0
0
0
0
0
0
0
0
0
0
7.8979e-11
6.75249e-11
2.25428e-11
2.56071e-11
1.04565e-11
4.17906e-11
3.81087e-11
1.3429e-10
7.82253e-11
3.56159e-11
1.15161e-10
7.67028e-11
9.22018e-11
4.40453e-11
9.14903e-11
1.00559e-10
3.65691e-11
6.95172e-11
1.11906e-11
3.42984e-11
2.79844e-11
8.86605e-11
4.91693e-11
6.73909e-12
1.38863e-10
0
1.22551e-10
2.90693e-11
5.823e-11
2.22766e-11
3.57457e-11
2.59227e-10
7.72792e-11
3.56966e-11
7.86663e-11
0
5.23144e-11
6.75197e-11
1.63366e-11
1.42943e-10
7.8528e-11
4.84159e-11
1.23743e-10
0
4.06514e-11
5.4733e-11
5.74315e-11
1.62513e-12
5.66762e-11
1.03458e-10
0
0
0
0
0
0
0
0
0
0
7.7378e-11
7.96966e-11
1.16185e-10
2.94099e-10
5.44376e-11
7.72663e-11
3.78096e-11
3.58912e-11
5.80591e-11
9.54617e-11
1.88877e-10
1.18139e-10
1.11743e-10
3.14527e-11
6.49398e-12
2.08892e-10
1.02308e-10
1.26511e-10
1.58359e-10
2.1484e-11
1.10285e-11
2.23193e-11
0
0
2.86369e-11
5.79876e-11
3.02951e-11
3.23301e-11
4.29268e-11
7.19764e-11
6.10126e-11
1.01753e-10
1.2059e-10
1.61373e-10
6.6857e-12
1.89124e-11
7.07999e-11
1.60079e-11
4.70068e-11
5.78543e-11
0
4.82726e-11
6.29991e-11
2.49803e-11
4.23559e-11
0
1.03809e-10
9.96009e-11
2.63664e-11
0
0
0
0
0
0
0
0
0
0
0
1.78706e-10
5.24262e-11
2.47633e-10
8.81341e-11
4.79327e-11
1.20916e-10
1.10763e-10
7.68494e-11
7.82234e-11
1.10129e-10
6.22565e-11
1.3987e-10
4.49878e-11
2.18387e-10
6.76788e-11
6.26007e-11
1.03471e-11
1.22958e-10
2.76579e-11
1.26818e-10
4.14666e-11
1.10304e-11
5.24591e-11
4.13183e-11
1.00881e-10
4.31952e-11
6.43998e-11
3.71586e-11
2.21039e-11
7.72066e-11
1.28018e-10
7.79621e-11
1.97538e-10
6.27567e-11
2.31505e-12
7.77382e-12
9.16191e-11
3.39057e-11
2.52422e-11
1.16855e-10
2.15944e-12
1.80339e-10
7.73973e-11
0
3.59155e-11
1.4831e-10
5.14026e-11
1.03279e-10
1.16706e-10
0
0
0
0
0
0
0
0
0
0
0
3.63545e-11
0
1.20096e-10
2.25852e-10
6.68219e-11
4.80881e-11
2.01363e-10
4.05556e-11
6.89658e-11
1.24692e-10
3.52583e-11
8.86611e-11
5.7941e-11
1.00272e-10
6.78316e-11
0
3.38808e-11
1.67887e-11
1.8294e-11
5.25769e-11
4.36035e-11
2.17376e-11
5.42259e-11
2.69381e-11
6.04569e-11
1.04979e-10
1.30314e-10
6.0865e-11
7.42628e-11
1.53395e-11
8.69505e-11
9.2216e-11
4.90803e-11
6.13155e-11
1.34881e-11
1.59346e-11
3.56742e-11
1.07753e-10
7.09045e-11
0
8.09988e-11
1.87826e-10
0
0
8.55711e-11
1.11518e-10
5.27164e-11
8.53348e-11
0
0
0
0
1.1068e-10
0
0
0
0
0
0
0
6.88862e-11
8.96893e-11
1.00866e-10
1.90746e-10
1.0718e-10
7.27736e-11
3.48201e-11
1.89661e-11
4.14594e-11
1.41019e-10
4.98578e-11
1.13116e-10
7.19515e-11
5.16981e-11
1.63323e-11
1.47923e-10
1.13085e-10
3.449e-11
6.00796e-11
2.90052e-11
8.74005e-11
1.0699e-10
8.63092e-11
1.16071e-10
5.6732e-11
1.0075e-10
8.41973e-11
8.10581e-11
6.0742e-12
2.73236e-11
3.09705e-11
6.67594e-11
7.43054e-11
2.92749e-11
1.34632e-11
2.22155e-11
7.49169e-11
0
1.31107e-10
1.08739e-10
4.96597e-11
9.41069e-11
5.20353e-11
2.86107e-11
1.90647e-10
9.16127e-13
1.26208e-10
5.79362e-11
0
0
2.04734e-10
0
0
0
0
0
0
0
0
0
3.34623e-11
6.72688e-11
1.0204e-10
4.24638e-11
1.11973e-10
4.96602e-11
1.66157e-10
2.22118e-10
7.15562e-11
2.32058e-10
8.5064e-11
1.45354e-10
1.04059e-10
1.3499e-10
2.79553e-11
9.79761e-11
4.09075e-11
4.27685e-11
4.19737e-11
3.02201e-11
8.42675e-11
1.53774e-10
2.53198e-10
4.23489e-11
3.79797e-11
7.4781e-12
4.31044e-11
2.84095e-11
2.08055e-11
2.7905e-11
2.95419e-12
2.05226e-10
8.56779e-11
1.16014e-10
2.24166e-10
1.43467e-10
3.99777e-11
9.31123e-11
4.54754e-11
0
4.52866e-11
7.68858e-11
4.8615e-11
6.12428e-11
0
0
0
0
0
2.70186e-10
4.2383e-11
8.2679e-11
0
0
0
0
0
0
0
0
2.46962e-11
1.91366e-10
6.25932e-11
6.68468e-11
1.68346e-11
2.06109e-10
8.80341e-11
1.96824e-10
5.43481e-11
1.04406e-10
2.2921e-10
9.75213e-11
7.98697e-11
1.22569e-10
1.12671e-10
6.25141e-11
4.52424e-11
7.1697e-11
1.07102e-10
0
2.97334e-11
1.34603e-10
0
1.85879e-11
1.63639e-11
4.36109e-11
1.69142e-10
5.53874e-11
4.05811e-11
1.58612e-11
6.29736e-11
7.09438e-12
8.61926e-11
0
1.48555e-10
7.41409e-11
1.98732e-11
1.97294e-10
9.94176e-11
1.85633e-10
1.16272e-10
6.09079e-11
2.28654e-11
1.80524e-10
4.16515e-11
5.82738e-11
0
0
1.38738e-10
1.12825e-10
0
0
0
0
0
0
0
0
0
0
0
4.05804e-11
9.7757e-11
1.21611e-10
1.5618e-10
7.29774e-11
2.15418e-10
7.51987e-11
1.74195e-10
8.00876e-11
7.5671e-11
1.0927e-10
2.3505e-10
1.40809e-10
1.00391e-10
5.20066e-11
1.61788e-10
1.42702e-10
1.15632e-10
5.81834e-11
4.54449e-11
2.86054e-11
3.54347e-11
7.44549e-11
2.67958e-11
7.7598e-11
8.19523e-11
0
1.52474e-10
2.98938e-11
7.48938e-11
0
9.12796e-11
2.99307e-11
8.20002e-11
7.05764e-11
0
0
1.73495e-10
0
1.23024e-10
1.53238e-10
0
1.17035e-10
9.88246e-12
4.71818e-11
0
0
0
0
0
0
0
0
0
0
0
0
0
0
1.01424e-10
5.44358e-11
9.90393e-11
1.87117e-10
1.84326e-10
1.72767e-10
2.23656e-10
1.61597e-10
1.41546e-10
2.36855e-10
6.01024e-11
1.37858e-10
5.97918e-11
1.54094e-10
3.70621e-11
1.04432e-10
3.5966e-11
6.18419e-11
5.89606e-11
6.04169e-11
8.68479e-11
1.08682e-10
6.65809e-11
5.22571e-12
7.22118e-11
7.55221e-11
1.0919e-10
7.55844e-11
3.51247e-11
2.79052e-11
3.75412e-11
2.59318e-11
8.44199e-11
5.90567e-11
8.8447e-11
4.33641e-11
6.36944e-11
6.53445e-11
7.21834e-11
0
1.84901e-10
1.07014e-10
2.45464e-11
1.88999e-10
2.31462e-11
1.24087e-10
0
9.16471e-11
0
0
0
0
0
0
0
0
0
0
0
0
4.28225e-10
4.93942e-11
7.12059e-11
4.48056e-11
1.02489e-10
7.82192e-11
1.51589e-10
1.07801e-10
5.37629e-11
7.98337e-11
1.9802e-10
2.69873e-11
1.14099e-10
2.79381e-11
1.13677e-10
4.87102e-12
8.85093e-11
9.98226e-11
1.13487e-11
6.06886e-11
5.72213e-11
5.16844e-11
5.36011e-11
2.46142e-11
6.71611e-11
6.68219e-11
8.51665e-11
5.24837e-11
4.67461e-12
2.64041e-11
1.96558e-10
4.01298e-11
1.28657e-10
1.3103e-11
1.34279e-10
5.93012e-11
2.32193e-11
0
5.35402e-11
8.68358e-11
9.85474e-11
2.19853e-12
2.77125e-11
0
2.37326e-11
1.27908e-11
1.26209e-10
1.13856e-10
0
0
0
0
0
0
0
0
0
0
0
0
0
1.61463e-10
2.47386e-10
4.09582e-11
5.23432e-11
8.6217e-11
1.11706e-10
2.6422e-10
2.06384e-10
1.02135e-10
2.80658e-10
1.9142e-10
1.66638e-10
1.91748e-11
1.68679e-10
1.12104e-10
6.95956e-11
1.33536e-10
0
2.42818e-10
2.01923e-11
4.98473e-11
1.11654e-10
9.86198e-11
1.8445e-11
1.06285e-11
1.26534e-11
7.80892e-11
2.9993e-11
3.62914e-11
1.08552e-10
6.42692e-11
2.35192e-11
1.71469e-11
2.48973e-11
8.03915e-11
9.93914e-11
1.78768e-10
9.44392e-11
1.26868e-10
3.86775e-10
4.01419e-11
0
1.72129e-10
2.19893e-10
1.80662e-10
0
3.01205e-11
5.33803e-11
0
0
0
0
0
0
0
0
0
0
0
1.21922e-11
5.22162e-11
5.9025e-11
5.61601e-11
1.57947e-10
4.15067e-11
9.07447e-11
1.69702e-10
8.99266e-11
1.59636e-10
1.55109e-10
8.20619e-11
9.30582e-12
6.37804e-11
1.29551e-10
1.10283e-10
1.25966e-10
1.47296e-10
1.12654e-10
1.73072e-10
9.21417e-11
7.09877e-11
6.56176e-11
1.88913e-11
6.13097e-11
1.14527e-10
3.91154e-11
6.66309e-11
5.54031e-11
3.78973e-11
1.36051e-10
7.86347e-11
7.68969e-12
5.06873e-11
1.13671e-10
1.44438e-10
2.54173e-11
1.21436e-10
6.80944e-11
3.05652e-10
2.99959e-10
0
6.71751e-11
7.3318e-13
3.14465e-11
7.78733e-11
0
0
0
1.36701e-10
0
0
0
0
0
0
0
0
0
0
0
2.02296e-10
8.317e-11
8.7879e-11
1.1838e-10
2.73181e-11
1.05459e-10
1.82035e-10
6.377e-11
4.2752e-11
5.36716e-11
4.70671e-11
2.05153e-10
3.45403e-11
3.10046e-10
7.51143e-11
9.4855e-11
1.25707e-10
4.51488e-11
6.34625e-11
6.06801e-11
1.45362e-10
1.36166e-10
1.28879e-10
5.18036e-11
2.70251e-10
1.48097e-10
6.80699e-11
8.42567e-11
1.08899e-10
1.23086e-10
6.74352e-11
7.05822e-11
4.77572e-11
5.12171e-11
9.73198e-11
4.03756e-11
4.75997e-11
4.07935e-11
5.99457e-11
8.9447e-11
0
1.54941e-10
4.2179e-11
8.32785e-12
2.14826e-10
0
0
0
0
0
0
0
0
0
0
0
0
0
0
0
1.01541e-10
2.12898e-10
1.31113e-10
2.83114e-11
1.18225e-10
2.24658e-10
1.7004e-10
1.1857e-10
1.36293e-10
1.374e-10
2.29569e-10
1.90464e-11
6.19099e-11
7.49036e-11
8.00925e-11
8.94971e-11
1.20031e-10
6.81924e-11
1.40521e-11
5.21453e-11
3.52278e-11
1.10051e-10
1.16604e-10
6.08739e-11
5.57571e-11
8.81908e-11
5.5313e-11
6.44639e-11
8.45337e-11
2.19474e-10
4.42869e-11
7.76665e-11
1.07781e-11
1.48448e-10
6.34542e-11
2.8206e-11
9.1927e-11
1.1182e-10
1.03233e-10
1.0371e-10
0
0
1.3374e-12
1.69721e-10
1.30566e-10
0
0
0
0
0
0
0
0
0
0
0
0
0
0
0
7.89437e-11
8.25298e-11
5.6364e-11
9.11869e-11
1.67319e-10
1.28792e-10
1.07711e-10
1.42117e-10
1.30395e-10
4.57083e-11
1.4428e-10
1.79539e-10
9.29439e-11
8.04756e-11
9.08237e-11
4.77883e-11
6.95583e-11
7.4206e-11
1.46483e-10
5.83513e-11
9.24006e-11
5.86953e-11
3.6397e-11
1.99262e-10
3.44223e-11
7.14304e-11
8.79118e-12
6.87501e-11
1.15449e-10
1.25942e-10
8.58434e-11
3.59837e-11
2.01184e-10
3.84518e-11
5.05781e-11
5.53312e-11
5.51621e-11
3.66922e-11
9.71818e-11
1.55516e-10
1.10115e-10
1.8609e-10
9.6987e-11
8.95156e-11
0
0
0
0
0
0
0
0
0
0
0
0
0
0
0
0
1.45926e-10
1.46343e-10
1.13596e-10
5.60204e-11
6.64999e-11
9.32304e-11
1.50331e-10
2.77435e-10
1.45645e-10
7.84921e-11
8.71957e-11
1.13567e-10
1.4719e-10
2.30516e-10
1.65227e-10
2.30918e-10
2.90415e-10
1.9455e-11
1.43615e-10
2.71168e-11
3.99275e-11
6.0152e-11
2.88557e-11
1.58078e-10
9.62736e-11
7.52033e-11
1.94509e-11
5.89286e-11
1.58771e-11
5.18002e-11
1.72675e-10
3.2781e-11
3.02624e-11
9.36052e-11
3.66337e-11
2.9916e-11
1.05012e-10
3.88421e-11
1.23972e-10
2.43587e-10
1.26152e-10
4.78514e-11
2.38631e-10
7.91772e-11
0
0
0
1.14254e-10
0
0
0
0
0
0
0
0
0
0
0
0
6.43173e-11
5.18836e-11
9.95743e-11
1.30041e-10
9.35012e-11
2.88974e-10
1.65743e-10
8.73613e-11
1.34867e-10
1.50414e-10
3.99972e-10
8.85695e-11
4.74581e-11
9.84251e-11
3.61879e-11
1.66471e-10
1.44911e-10
6.24599e-11
4.42725e-11
1.4522e-10
8.60215e-11
2.04884e-11
3.29789e-11
7.52009e-11
7.36756e-11
1.42917e-10
1.82263e-11
1.10232e-10
3.43686e-11
8.80392e-11
5.33985e-11
2.44481e-10
4.396e-11
1.11353e-10
7.52133e-11
2.17462e-10
5.81889e-11
3.38836e-11
0
1.31458e-10
9.26611e-11
3.87266e-11
0
0
4.71374e-11
0
0
0
0
0
0
0
0
0
0
0
0
0
0
0
2.79221e-10
1.21123e-10
8.90629e-11
1.60383e-10
1.59553e-10
1.92416e-10
1.43908e-10
1.63138e-10
2.52434e-10
1.36429e-10
1.0773e-10
1.51048e-10
5.89175e-11
1.49857e-10
1.27164e-10
5.42427e-11
7.11144e-11
2.1029e-10
5.88522e-11
1.15313e-10
1.18407e-10
2.7043e-11
6.99246e-11
4.23585e-11
3.64999e-11
2.44002e-11
7.28055e-11
6.7072e-11
8.49002e-11
7.0673e-11
8.47651e-11
9.46436e-11
1.45301e-11
2.03011e-10
2.62524e-11
4.53407e-11
6.34432e-11
1.55627e-10
8.2223e-11
3.58195e-11
2.17857e-10
0
8.45288e-11
2.01466e-10
3.66094e-10
6.12755e-11
1.35035e-10
0
0
0
0
0
0
0
0
0
0
0
0
0
1.155e-10
5.51585e-11
1.15742e-10
2.3984e-10
1.20624e-10
1.35537e-10
5.64651e-11
1.65151e-10
1.15871e-10
9.14909e-11
4.18869e-11
1.3454e-10
1.70268e-10
1.1859e-10
3.22785e-11
3.03335e-11
9.99227e-11
4.82795e-11
6.95244e-11
4.91646e-11
1.48774e-10
4.87711e-11
6.81471e-11
1.68861e-10
6.11835e-11
6.64957e-11
5.12213e-11
6.19575e-11
2.46932e-11
1.89811e-10
1.31016e-10
6.2657e-11
8.23724e-11
9.49752e-11
5.90141e-11
4.02975e-11
7.7656e-11
6.72019e-11
2.02316e-11
1.92189e-10
2.96105e-11
1.13552e-10
1.05262e-10
1.71587e-10
7.56981e-11
2.43464e-10
9.78789e-11
0
0
0
0
0
0
0
0
0
0
0
0
0
1.85337e-11
2.46373e-10
6.23628e-11
1.12428e-10
2.02729e-10
2.68632e-11
2.84317e-10
9.54977e-11
2.69804e-10
2.16229e-10
2.66355e-10
1.36445e-10
1.03779e-10
1.06145e-10
2.69535e-10
1.84616e-10
1.15209e-10
5.42186e-11
2.0049e-10
3.80973e-11
1.24253e-10
9.42564e-11
1.30325e-10
0
3.43737e-11
3.38592e-11
1.01471e-10
5.97673e-11
0
1.89537e-10
1.08719e-12
3.32449e-11
7.28325e-11
1.79411e-10
1.09004e-10
6.48538e-11
1.57211e-10
6.60266e-11
8.93581e-11
7.54316e-11
1.50468e-10
8.024e-11
2.29162e-10
6.89113e-11
1.17005e-10
0
0
7.42429e-11
0
0
0
0
0
0
0
0
0
0
0
0
6.15367e-11
5.62693e-11
4.46317e-11
3.49033e-10
1.06063e-10
4.46227e-11
3.23111e-11
1.40968e-10
7.64592e-11
1.58947e-10
1.71162e-10
1.95647e-10
1.90488e-10
1.74223e-10
1.04438e-10
2.74697e-11
1.19996e-10
9.12705e-11
7.44056e-11
6.38253e-11
2.34963e-10
1.80116e-10
5.06735e-11
2.03497e-11
1.35588e-10
4.09944e-11
4.02372e-11
6.58495e-11
1.30086e-10
4.57818e-11
7.00633e-11
6.43424e-11
1.91537e-11
8.13425e-11
4.85324e-11
5.65048e-11
1.30406e-10
9.43612e-11
6.50993e-11
4.68652e-11
1.53451e-10
5.06775e-11
6.27238e-11
1.58631e-10
3.53147e-12
5.10805e-11
1.30338e-12
5.9937e-11
0
0
0
0
0
0
0
0
0
0
0
0
2.60016e-10
8.83399e-11
1.77932e-10
5.19921e-11
1.98818e-10
9.95574e-11
9.52064e-11
2.22167e-10
3.53571e-11
1.55768e-10
1.2997e-10
1.60929e-10
1.19903e-10
1.74648e-10
0
1.02962e-10
2.08192e-10
1.15994e-10
5.33756e-11
3.27314e-10
1.61551e-10
1.31034e-10
1.10791e-10
3.63803e-11
1.19199e-10
3.86638e-11
6.87202e-11
6.33991e-11
1.23027e-10
1.76892e-10
1.87742e-11
6.36564e-11
9.69784e-11
1.05663e-10
8.69249e-11
4.39277e-11
1.504e-10
8.16865e-11
8.39964e-11
6.62182e-11
2.52082e-10
0
0
6.31255e-11
9.92735e-11
4.82475e-11
1.13591e-10
5.85584e-11
0
0
0
0
0
0
0
0
0
0
0
0
1.22369e-10
1.6207e-10
9.22749e-11
1.77426e-10
4.59234e-11
1.28553e-10
8.63323e-11
2.08329e-10
2.38949e-11
2.58575e-10
1.5791e-10
9.92222e-11
1.27054e-11
1.44082e-10
1.218e-10
6.75282e-11
1.74585e-10
5.52377e-11
4.7854e-11
1.01522e-10
9.25482e-11
1.03794e-10
2.91915e-10
9.04499e-11
1.13568e-10
1.03498e-10
1.1628e-10
1.42512e-11
3.25446e-11
5.97376e-11
2.76272e-11
9.2218e-11
9.67341e-11
3.30079e-11
6.26837e-11
5.89037e-11
1.35607e-10
5.06655e-11
1.0975e-10
0
8.27848e-11
0
6.42902e-11
9.97549e-11
1.2568e-10
1.08386e-10
9.78136e-11
0
0
0
0
0
0
0
0
0
0
6.87946e-12
0
1.3793e-11
6.52894e-12
9.33066e-11
2.2094e-10
2.04286e-10
9.22917e-11
9.27032e-11
6.93074e-11
2.09577e-10
8.99027e-11
2.23055e-10
1.33909e-10
2.12797e-10
1.967e-10
3.28961e-11
8.74646e-11
1.79719e-10
1.2703e-10
7.92158e-11
4.55433e-11
7.0922e-11
1.70187e-10
1.50347e-10
1.06167e-10
1.13672e-10
1.26064e-11
1.4475e-11
9.52978e-11
1.53861e-11
6.23705e-11
1.63859e-10
1.45511e-10
3.5952e-11
1.23978e-10
9.09512e-12
1.25999e-10
9.14101e-11
1.42479e-10
4.24445e-11
7.21005e-11
1.04173e-10
1.4784e-10
2.50074e-10
1.19536e-10
6.98671e-11
1.12494e-10
1.36657e-10
0
0
1.11581e-10
0
0
0
0
0
0
0
0
0
0
0
1.67957e-10
1.45084e-10
8.05765e-11
1.84577e-10
4.4879e-11
3.7383e-11
1.0288e-10
8.8175e-11
1.36213e-10
1.80779e-10
6.11494e-11
7.64471e-11
3.26827e-11
9.20347e-11
9.19907e-11
1.30067e-10
5.79536e-11
8.58036e-11
6.45811e-11
1.18663e-10
4.30936e-11
1.19045e-10
2.61425e-10
9.21303e-12
4.66162e-11
4.91612e-11
5.95772e-11
5.39196e-11
1.48917e-10
2.13149e-10
1.60207e-10
1.80844e-11
7.00001e-11
8.22039e-11
1.56736e-10
1.46739e-10
5.42844e-11
1.51698e-10
4.64768e-11
6.63815e-11
5.87167e-11
2.03317e-10
1.58949e-10
7.7961e-11
5.7729e-11
1.21231e-10
0
0
0
0
0
0
0
0
0
0
0
0
0
0
1.61935e-10
3.69354e-11
8.41645e-11
1.45667e-10
1.92356e-10
3.22481e-10
1.24348e-10
5.77173e-11
8.5164e-11
8.04475e-11
1.52641e-10
1.38651e-10
7.68538e-11
1.9846e-10
1.99783e-10
1.16858e-10
1.22936e-10
6.40969e-11
1.99367e-10
1.31111e-10
2.39936e-10
2.30757e-11
2.17196e-10
7.56118e-11
2.46809e-11
1.24535e-10
1.06227e-11
1.36757e-10
1.8423e-11
9.30881e-11
7.77692e-11
4.9364e-11
8.3947e-12
1.27143e-10
1.89729e-10
4.28856e-11
5.6911e-11
1.13811e-10
7.71487e-11
1.88206e-11
1.14729e-10
1.04665e-10
2.94445e-11
4.74081e-11
7.42213e-11
4.0677e-11
4.97154e-11
1.01789e-10
0
0
0
0
0
0
0
0
0
0
0
0
1.78382e-10
9.19096e-11
9.67139e-11
7.56309e-11
1.88469e-10
2.83932e-10
6.28159e-11
7.16432e-11
2.12791e-10
8.78997e-11
5.13918e-11
7.16622e-11
1.47313e-10
3.49633e-11
4.19905e-11
1.55765e-10
2.39742e-11
1.22708e-10
4.3149e-11
4.35481e-11
4.33199e-11
1.93479e-11
2.24975e-11
4.10505e-11