/*--------------------------------*- C++ -*----------------------------------*\
| =========                 |                                                 |
| \\      /  F ield         | OpenFOAM: The Open Source CFD Toolbox           |
|  \\    /   O peration     | Version:  v1906                                 |
|   \\  /    A nd           | Web:      www.OpenFOAM.com                      |
|    \\/     M anipulation  |                                                 |
\*---------------------------------------------------------------------------*/
FoamFile
{
    version     2.0;
    format      ascii;
    class       volVectorField::Internal;
    location    "2.83";
    object      coalCloud1:UTrans;
}
// * * * * * * * * * * * * * * * * * * * * * * * * * * * * * * * * * * * * * //

dimensions      [1 1 -1 0 0 0 0];


value           nonuniform List<vector> 
26400
(
(-4.37729e-15 -3.35503e-13 0)
(-3.60274e-14 -5.0112e-13 0)
(-4.82502e-14 -4.19018e-13 0)
(-3.32914e-14 -2.01672e-13 0)
(-1.62311e-13 -8.50751e-13 0)
(-7.0213e-14 -2.92778e-13 0)
(-1.2149e-13 -5.73063e-13 0)
(-8.47783e-14 -3.67589e-13 0)
(-1.05816e-13 -3.42888e-13 0)
(-2.99239e-13 -1.11835e-12 0)
(-1.87052e-13 -5.45731e-13 0)
(-3.17608e-13 -9.80576e-13 0)
(-1.07238e-13 -2.0219e-13 0)
(-7.06966e-14 -2.35487e-13 0)
(-1.70318e-13 -4.66891e-13 0)
(-2.77135e-13 -6.26132e-13 0)
(-1.07939e-13 -1.84555e-13 0)
(-2.00923e-13 -4.64703e-13 0)
(-6.93735e-13 -1.50214e-12 0)
(-3.27332e-13 -7.71546e-13 0)
(-8.10679e-14 -2.07178e-13 0)
(-8.69343e-14 -1.72532e-13 0)
(-1.87132e-13 -4.9255e-13 0)
(-2.95112e-13 -7.27509e-13 0)
(-7.57739e-14 -1.23122e-13 0)
(-3.96077e-13 -7.76697e-13 0)
(-1.98178e-13 -3.26366e-13 0)
(-9.69093e-14 -2.28405e-13 0)
(-4.43639e-13 -8.97229e-13 0)
(-1.39313e-13 -3.01113e-13 0)
(-4.04927e-13 -7.06115e-13 0)
(-2.5147e-13 -5.46155e-13 0)
(-3.23978e-13 -7.29806e-13 0)
(-2.25209e-13 -5.39854e-13 0)
(-6.43131e-14 -2.38421e-13 0)
(-3.91534e-13 -7.69527e-13 0)
(-2.44086e-13 -6.22782e-13 0)
(-3.46703e-13 -9.22558e-13 0)
(0 0 0)
(0 0 0)
(0 0 0)
(-2.42297e-13 -5.19515e-13 0)
(0 0 0)
(-3.58957e-14 -4.43022e-14 0)
(0 0 0)
(0 0 0)
(0 0 0)
(0 0 0)
(-5.3403e-14 -1.8033e-13 0)
(0 0 0)
(0 0 0)
(0 0 0)
(0 0 0)
(0 0 0)
(0 0 0)
(0 0 0)
(0 0 0)
(0 0 0)
(0 0 0)
(0 0 0)
(-4.45596e-15 -4.73472e-13 0)
(-4.47645e-14 -4.42738e-13 0)
(-5.28633e-14 -5.01332e-13 0)
(-1.01974e-13 -4.7581e-13 0)
(-2.70664e-14 -1.47605e-13 0)
(-6.13493e-14 -3.3822e-13 0)
(-2.18552e-13 -8.25701e-13 0)
(-9.86048e-14 -3.93186e-13 0)
(-9.1301e-14 -2.86537e-13 0)
(-1.01756e-13 -3.06661e-13 0)
(-1.80892e-13 -5.38371e-13 0)
(-1.65453e-13 -5.1974e-13 0)
(-1.65021e-13 -3.87185e-13 0)
(-7.69956e-14 -2.10856e-13 0)
(-1.02227e-13 -2.77629e-13 0)
(-3.65735e-14 -5.01011e-14 0)
(-1.02385e-13 -2.05332e-13 0)
(-1.12971e-13 -1.78685e-13 0)
(-9.1256e-14 -1.88625e-13 0)
(-3.14448e-13 -7.28094e-13 0)
(-2.94275e-13 -6.85895e-13 0)
(-5.27285e-14 -1.15685e-13 0)
(-3.55945e-13 -7.43956e-13 0)
(-1.89625e-13 -3.74333e-13 0)
(-6.61213e-14 -1.33681e-13 0)
(0 0 0)
(-2.95851e-13 -5.50778e-13 0)
(-1.77978e-14 -3.63633e-14 0)
(-4.70374e-14 -8.09337e-14 0)
(-2.01531e-14 -3.59976e-14 0)
(-5.34226e-13 -1.04384e-12 0)
(-4.54369e-13 -9.87331e-13 0)
(0 0 0)
(-1.80922e-13 -4.16116e-13 0)
(-2.49182e-13 -5.56125e-13 0)
(0 0 0)
(0 0 0)
(-4.68673e-13 -1.2628e-12 0)
(-2.30741e-13 -6.74418e-13 0)
(-2.14275e-13 -4.88937e-13 0)
(-5.49588e-14 -1.18372e-13 0)
(0 0 0)
(-2.2699e-15 -7.82639e-15 0)
(-1.71478e-13 -5.34523e-13 0)
(0 0 0)
(0 0 0)
(0 0 0)
(-7.25576e-14 -2.81647e-13 0)
(-2.82343e-14 -2.27107e-13 0)
(0 0 0)
(0 0 0)
(0 0 0)
(0 0 0)
(0 0 0)
(0 0 0)
(0 0 0)
(0 0 0)
(0 0 0)
(0 0 0)
(0 0 0)
(-1.14616e-14 -2.1884e-13 0)
(-7.04872e-15 -7.20985e-14 0)
(-3.40207e-14 -1.66553e-13 0)
(-1.1505e-13 -4.59918e-13 0)
(0 0 0)
(-1.7834e-13 -5.8727e-13 0)
(-1.28028e-13 -4.27341e-13 0)
(-1.08681e-13 -3.63602e-13 0)
(-1.34303e-13 -3.20071e-13 0)
(-2.56862e-13 -6.68353e-13 0)
(-1.35623e-13 -3.3973e-13 0)
(0 0 0)
(-1.40502e-13 -2.30831e-13 0)
(-4.10927e-13 -7.99352e-13 0)
(-3.24194e-13 -7.43137e-13 0)
(-5.08604e-13 -7.78796e-13 0)
(-4.59938e-13 -6.67191e-13 0)
(-2.31309e-13 -4.55949e-13 0)
(-4.80584e-13 -5.63592e-13 0)
(-1.80683e-13 -2.02621e-13 0)
(-2.03766e-13 -2.93764e-13 0)
(-2.78211e-13 -3.44631e-13 0)
(0 0 0)
(-2.80325e-13 -4.43055e-13 0)
(-5.94763e-13 -6.2548e-13 0)
(-3.4583e-13 -5.39143e-13 0)
(-3.31972e-13 -5.19688e-13 0)
(-1.07709e-13 -2.39807e-13 0)
(-2.02847e-13 -3.75633e-13 0)
(-1.16889e-13 -2.28834e-13 0)
(-5.04228e-14 -1.04801e-13 0)
(-1.78552e-13 -3.29179e-13 0)
(-2.87579e-13 -4.75763e-13 0)
(0 0 0)
(0 0 0)
(-2.58802e-13 -5.70659e-13 0)
(-3.91679e-13 -7.88485e-13 0)
(-4.65553e-13 -1.02632e-12 0)
(-1.18192e-13 -2.81129e-13 0)
(-1.68505e-13 -2.92965e-13 0)
(-3.14647e-14 -1.35607e-13 0)
(-2.45345e-13 -5.96378e-13 0)
(-2.08064e-13 -6.21176e-13 0)
(-9.59989e-14 -3.31578e-13 0)
(-6.87034e-14 -3.03882e-13 0)
(-6.92478e-14 -3.46128e-13 0)
(0 0 0)
(0 0 0)
(0 0 0)
(0 0 0)
(0 0 0)
(0 0 0)
(0 0 0)
(0 0 0)
(0 0 0)
(0 0 0)
(0 0 0)
(0 0 0)
(0 0 0)
(0 0 0)
(-1.21556e-15 -7.28981e-14 0)
(-1.27327e-14 -1.66399e-14 0)
(-5.38677e-14 -1.00357e-14 0)
(-2.98704e-14 -2.69143e-14 0)
(-1.30554e-13 -1.65672e-13 0)
(-2.45057e-13 -1.74035e-13 0)
(-2.08139e-13 -2.64723e-13 0)
(-3.50694e-13 -2.63859e-13 0)
(-7.14829e-14 -7.16925e-14 0)
(-2.25799e-13 -3.22305e-13 0)
(-3.93151e-13 -4.7212e-13 0)
(-1.41301e-13 -9.71467e-14 0)
(-1.19505e-13 -1.45192e-13 0)
(-2.99715e-13 -3.72354e-13 0)
(-1.42861e-13 -1.70685e-13 0)
(-1.89349e-13 -2.71924e-13 0)
(-8.5284e-14 -9.83764e-14 0)
(-3.99217e-13 -4.73069e-13 0)
(0 0 0)
(-3.14248e-13 -3.61559e-13 0)
(-1.86846e-13 -1.48539e-13 0)
(-5.97578e-13 -7.04539e-13 0)
(-1.9828e-13 -2.38447e-13 0)
(-1.91663e-13 -2.79508e-13 0)
(-8.33942e-13 -4.71929e-13 0)
(0 0 0)
(-1.43571e-13 -2.46211e-13 0)
(-1.69932e-13 -2.6705e-13 0)
(-3.72565e-13 -5.65934e-13 0)
(-3.60779e-13 -5.44289e-13 0)
(-2.24572e-13 -2.14336e-13 0)
(0 0 0)
(-4.29028e-13 -7.22131e-13 0)
(-3.8712e-13 -6.4509e-13 0)
(-4.96398e-13 -9.18124e-13 0)
(-1.92263e-13 -3.54421e-13 0)
(-3.20868e-13 -6.04238e-13 0)
(-1.38163e-13 -3.08993e-13 0)
(0 0 0)
(-2.25164e-13 -5.11284e-13 0)
(-1.18305e-13 -2.58925e-13 0)
(-4.99455e-14 -1.0665e-13 0)
(-1.9968e-13 -4.11492e-13 0)
(-2.40249e-13 -5.28536e-13 0)
(0 0 0)
(-2.69575e-14 -7.14337e-14 0)
(-9.39255e-14 -2.25383e-13 0)
(-7.88434e-14 -2.56879e-13 0)
(0 0 0)
(0 0 0)
(0 0 0)
(0 0 0)
(0 0 0)
(0 0 0)
(0 0 0)
(0 0 0)
(0 0 0)
(0 0 0)
(0 0 0)
(0 0 0)
(-1.94499e-14 6.8191e-14 0)
(-2.7316e-14 2.1132e-14 0)
(-6.94619e-14 1.64644e-13 0)
(-2.17388e-13 2.53029e-13 0)
(-8.89785e-14 3.85597e-14 0)
(-1.84458e-13 1.31097e-13 0)
(-2.49695e-13 -1.53223e-16 0)
(-4.26497e-13 5.06242e-15 0)
(-1.18113e-13 -3.12255e-14 0)
(-2.00295e-13 -6.2514e-14 0)
(-4.5895e-13 -2.70204e-13 0)
(-1.5693e-13 -3.58915e-14 0)
(0 0 0)
(-3.44801e-13 -2.30361e-13 0)
(-4.44731e-13 -2.45412e-13 0)
(-4.60837e-13 -2.85894e-13 0)
(-2.06172e-13 -9.51192e-14 0)
(-2.33836e-13 -7.91752e-14 0)
(-8.96997e-13 -5.69309e-13 0)
(-2.64207e-13 -1.18261e-13 0)
(-4.66801e-13 -2.86094e-13 0)
(-2.12221e-13 -1.83458e-13 0)
(-6.11015e-13 -5.57913e-13 0)
(-3.91599e-13 -3.14022e-13 0)
(-2.2231e-13 -1.73438e-13 0)
(-4.04368e-13 -3.68955e-13 0)
(-1.12611e-12 -9.55496e-13 0)
(-5.84937e-13 -6.15116e-14 0)
(-5.40798e-13 -4.68455e-13 0)
(-4.57225e-13 -5.15492e-13 0)
(-1.02059e-12 -1.06554e-12 0)
(-4.48436e-13 -4.93253e-13 0)
(-6.00798e-13 -6.81035e-13 0)
(-7.03318e-13 -9.33457e-13 0)
(-7.25177e-14 -8.12103e-14 0)
(-8.37262e-13 -1.22939e-12 0)
(-2.1339e-13 -3.63512e-13 0)
(0 0 0)
(-4.01336e-13 -6.47849e-13 0)
(0 0 0)
(-1.89025e-13 -3.47058e-13 0)
(-9.72754e-14 -2.45715e-13 0)
(-3.82225e-13 -7.53087e-13 0)
(-4.19737e-13 -9.60525e-13 0)
(-4.50225e-14 -6.82683e-14 0)
(-8.74424e-14 -3.10859e-13 0)
(0 0 0)
(-1.57049e-14 -8.67546e-14 0)
(0 0 0)
(0 0 0)
(0 0 0)
(0 0 0)
(0 0 0)
(0 0 0)
(0 0 0)
(0 0 0)
(0 0 0)
(0 0 0)
(0 0 0)
(0 0 0)
(-4.58319e-14 5.14814e-13 0)
(-1.84787e-13 9.75771e-13 0)
(-6.29926e-14 1.88102e-13 0)
(-7.25368e-14 1.39969e-13 0)
(-3.90884e-13 7.87574e-13 0)
(-2.76963e-13 4.08829e-13 0)
(-5.68048e-13 6.32807e-13 0)
(-3.57102e-13 2.46344e-13 0)
(-1.78837e-13 1.40449e-13 0)
(-1.29196e-13 9.71429e-15 0)
(-4.85789e-13 1.59941e-13 0)
(-4.73688e-13 1.59073e-13 0)
(0 0 0)
(-4.73033e-13 -5.26882e-14 0)
(-5.4446e-13 -5.64073e-15 0)
(-2.16817e-13 -4.85853e-15 0)
(0 0 0)
(0 0 0)
(-8.72132e-14 -5.06373e-14 0)
(-6.41083e-13 -1.96659e-13 0)
(-8.02576e-13 -2.85135e-13 0)
(-1.59637e-12 -5.39454e-13 0)
(-2.30592e-13 -1.34688e-13 0)
(-9.63833e-13 -7.6047e-14 0)
(0 0 0)
(0 0 0)
(-9.60461e-13 -5.75819e-13 0)
(0 0 0)
(-3.34679e-13 -1.41728e-13 0)
(-9.43863e-13 -7.33594e-13 0)
(-5.91704e-13 -3.67573e-13 0)
(-5.8785e-13 -4.2006e-13 0)
(-1.44132e-12 -1.38639e-12 0)
(0 0 0)
(-1.68453e-13 -2.10816e-13 0)
(-8.7119e-13 -1.00439e-12 0)
(-3.18335e-14 -2.8112e-14 0)
(-2.4634e-13 -2.50223e-13 0)
(-2.33266e-13 -3.38933e-13 0)
(-2.34542e-13 -2.77228e-13 0)
(-4.60776e-14 -9.14011e-14 0)
(-4.35125e-13 -6.94208e-13 0)
(-2.2587e-13 -3.37509e-13 0)
(0 0 0)
(-2.55726e-13 -5.33405e-13 0)
(-3.69574e-13 -7.12058e-13 0)
(0 0 0)
(0 0 0)
(0 0 0)
(0 0 0)
(0 0 0)
(0 0 0)
(0 0 0)
(0 0 0)
(0 0 0)
(0 0 0)
(0 0 0)
(0 0 0)
(0 0 0)
(0 0 0)
(-4.47407e-14 1.03639e-12 0)
(-1.37323e-13 1.20076e-12 0)
(-1.40005e-13 9.18539e-13 0)
(-8.13649e-14 2.60983e-13 0)
(-1.11175e-14 2.57546e-14 0)
(-3.4614e-13 6.32833e-13 0)
(-2.1763e-13 3.24667e-13 0)
(-4.8248e-13 6.64406e-13 0)
(-5.19952e-13 5.58243e-13 0)
(-4.56172e-13 3.76195e-13 0)
(-4.03746e-13 2.33322e-13 0)
(-1.2275e-12 6.52138e-13 0)
(-8.80466e-13 2.74265e-13 0)
(-2.65708e-13 8.86838e-14 0)
(-3.98793e-13 7.23445e-14 0)
(-2.93666e-13 4.08284e-14 0)
(-3.90928e-13 5.59794e-14 0)
(-3.80821e-13 5.05801e-14 0)
(-5.78456e-13 2.32816e-13 0)
(-7.78723e-13 -2.62737e-14 0)
(-2.84756e-13 -7.91294e-14 0)
(-1.69865e-12 -2.74199e-13 0)
(0 0 0)
(0 0 0)
(-1.17007e-12 -2.85547e-13 0)
(-1.08828e-12 -4.02775e-13 0)
(-1.35952e-12 -3.91651e-13 0)
(0 0 0)
(-4.88013e-13 -2.39534e-13 0)
(-3.48021e-13 -1.69005e-13 0)
(-8.65747e-13 -4.59359e-13 0)
(-9.07664e-13 -4.60225e-13 0)
(-8.49778e-13 -5.5709e-13 0)
(-7.69111e-13 -5.7845e-13 0)
(-1.2875e-12 -1.07242e-12 0)
(-1.74577e-12 -1.45214e-12 0)
(-5.43535e-13 -5.31721e-13 0)
(0 0 0)
(-8.55601e-14 -8.16141e-14 0)
(-4.45821e-13 -4.85211e-13 0)
(-3.00557e-13 -3.72229e-13 0)
(0 0 0)
(-3.0434e-13 -4.01806e-13 0)
(-8.85435e-14 -1.16149e-13 0)
(-3.3594e-13 -5.32884e-13 0)
(0 0 0)
(0 0 0)
(0 0 0)
(-3.97911e-13 -1.00801e-12 0)
(0 0 0)
(0 0 0)
(0 0 0)
(0 0 0)
(0 0 0)
(0 0 0)
(0 0 0)
(0 0 0)
(0 0 0)
(0 0 0)
(0 0 0)
(-2.37646e-14 3.651e-13 0)
(-1.92683e-13 1.92237e-12 0)
(-2.86558e-13 1.63466e-12 0)
(-3.05712e-13 1.18616e-12 0)
(-2.00173e-13 6.43869e-13 0)
(-3.81803e-13 9.97994e-13 0)
(-1.14001e-12 2.55139e-12 0)
(-7.98582e-13 1.34556e-12 0)
(-3.98017e-13 5.48266e-13 0)
(-5.81592e-13 7.02072e-13 0)
(-8.14628e-13 8.17561e-13 0)
(-6.10091e-13 5.10042e-13 0)
(-3.67251e-13 3.09999e-13 0)
(-8.45762e-13 4.8095e-13 0)
(-9.9545e-13 5.40448e-13 0)
(-8.0355e-13 3.70684e-13 0)
(-1.05037e-12 3.95333e-13 0)
(-5.66984e-13 2.45962e-13 0)
(-5.98004e-13 2.69635e-13 0)
(-9.25673e-13 2.09739e-13 0)
(-1.24097e-12 9.9277e-14 0)
(0 0 0)
(-6.41091e-13 1.71138e-13 0)
(-1.53382e-12 -8.08271e-14 0)
(-1.17939e-13 -2.58625e-14 0)
(-1.2274e-12 -1.84079e-13 0)
(-3.2564e-12 -6.85165e-13 0)
(-2.08452e-12 -3.90982e-14 0)
(0 0 0)
(-1.36035e-13 -7.04034e-14 0)
(-3.02543e-14 -1.69311e-14 0)
(-1.9839e-12 -8.41999e-13 0)
(-2.47977e-12 -1.19152e-12 0)
(-1.7088e-12 -9.7496e-13 0)
(-9.09873e-13 -5.93535e-13 0)
(-4.94804e-13 -3.46296e-13 0)
(-1.87434e-12 -1.4414e-12 0)
(-1.41257e-12 -1.16413e-12 0)
(-8.67954e-13 -7.69932e-13 0)
(-2.0735e-12 -1.88869e-12 0)
(-2.18757e-13 -1.85251e-13 0)
(-4.41644e-13 -4.26533e-13 0)
(-5.52793e-13 -6.5027e-13 0)
(-2.50755e-13 -3.63171e-13 0)
(-1.53008e-13 -1.65162e-13 0)
(0 0 0)
(0 0 0)
(0 0 0)
(-3.11387e-14 -9.20706e-14 0)
(0 0 0)
(0 0 0)
(0 0 0)
(0 0 0)
(0 0 0)
(0 0 0)
(0 0 0)
(0 0 0)
(0 0 0)
(0 0 0)
(0 0 0)
(-3.54563e-14 5.94986e-13 0)
(-1.42783e-13 1.65753e-12 0)
(-2.86489e-13 2.12248e-12 0)
(-3.74572e-13 1.8909e-12 0)
(-2.17702e-13 7.57298e-13 0)
(-7.95267e-13 2.29443e-12 0)
(-6.20166e-13 1.48321e-12 0)
(-3.37772e-13 6.61078e-13 0)
(-3.22188e-13 5.68199e-13 0)
(-6.60862e-13 8.76779e-13 0)
(-6.023e-13 7.55818e-13 0)
(-1.07482e-12 1.19006e-12 0)
(-2.34393e-13 2.08894e-13 0)
(-2.63704e-12 2.19925e-12 0)
(-2.02573e-12 1.70318e-12 0)
(-2.01117e-12 1.36821e-12 0)
(-1.5605e-12 8.47819e-13 0)
(-1.63388e-12 8.75284e-13 0)
(-6.48554e-14 2.92922e-14 0)
(-6.08623e-13 1.70167e-13 0)
(0 0 0)
(-2.59484e-12 1.01434e-12 0)
(-1.01891e-12 2.40391e-13 0)
(-2.24124e-12 2.47361e-13 0)
(0 0 0)
(-1.31751e-12 1.04795e-14 0)
(0 0 0)
(-1.10308e-12 -1.16657e-13 0)
(-6.51543e-13 -1.0262e-13 0)
(-8.27027e-13 -1.89954e-13 0)
(-2.37209e-12 -4.9737e-13 0)
(-3.21802e-13 -1.31653e-13 0)
(-1.59126e-12 -6.16823e-13 0)
(-3.00292e-12 -1.25675e-12 0)
(0 0 0)
(-6.6459e-13 -2.91763e-13 0)
(0 0 0)
(-7.41786e-13 -4.46309e-13 0)
(-8.45754e-13 -5.80928e-13 0)
(-1.85961e-12 -1.38081e-12 0)
(-5.00401e-13 -4.44661e-13 0)
(-8.44587e-13 -7.8543e-13 0)
(-1.27508e-12 -1.29831e-12 0)
(-5.14995e-13 -5.36003e-13 0)
(-2.83667e-13 -3.33631e-13 0)
(0 0 0)
(0 0 0)
(0 0 0)
(-3.34826e-13 -6.72992e-13 0)
(0 0 0)
(0 0 0)
(0 0 0)
(0 0 0)
(0 0 0)
(0 0 0)
(0 0 0)
(0 0 0)
(0 0 0)
(0 0 0)
(0 0 0)
(-3.41288e-14 1.47316e-12 0)
(-1.84391e-13 2.24296e-12 0)
(-2.40644e-13 1.94072e-12 0)
(-4.05287e-15 1.89651e-14 0)
(-1.08026e-13 4.94919e-13 0)
(-7.84531e-13 2.62085e-12 0)
(-1.24291e-12 3.24254e-12 0)
(-2.35935e-12 5.36994e-12 0)
(-1.2558e-12 2.5575e-12 0)
(-7.12265e-14 1.26047e-13 0)
(-1.876e-12 2.74682e-12 0)
(-3.96321e-13 5.39972e-13 0)
(-4.1948e-13 4.91775e-13 0)
(-1.05882e-12 1.04833e-12 0)
(-1.14158e-12 9.57867e-13 0)
(-5.63306e-13 4.44527e-13 0)
(-1.20537e-12 8.59485e-13 0)
(-2.23597e-12 1.34114e-12 0)
(-6.44255e-13 3.90813e-13 0)
(-1.6912e-12 8.80703e-13 0)
(-1.36487e-13 1.00788e-13 0)
(-1.35366e-13 5.13771e-14 0)
(-2.75597e-12 9.22476e-13 0)
(-1.45134e-12 3.81543e-13 0)
(-1.33566e-12 2.2828e-13 0)
(0 0 0)
(-1.31778e-12 2.25954e-13 0)
(-3.16435e-12 9.21706e-14 0)
(-8.35448e-13 -2.10633e-14 0)
(-4.22221e-12 -9.31015e-14 0)
(-1.01968e-12 -1.69246e-13 0)
(-2.25477e-12 -4.46217e-13 0)
(-1.66957e-12 -4.65053e-13 0)
(-2.07416e-12 -6.70387e-13 0)
(-1.83197e-12 -5.9259e-13 0)
(-3.11785e-12 -1.34712e-12 0)
(-1.99493e-12 -8.75366e-13 0)
(-1.02231e-12 -5.04852e-13 0)
(0 0 0)
(-2.84494e-13 -2.0624e-13 0)
(0 0 0)
(-8.19659e-13 -5.94682e-13 0)
(-6.46072e-13 -4.97084e-13 0)
(-6.57112e-13 -6.1407e-13 0)
(-1.25769e-12 -1.22332e-12 0)
(-7.01789e-13 -6.5044e-13 0)
(-1.45161e-12 -1.64004e-12 0)
(-5.71873e-13 -7.32267e-13 0)
(0 0 0)
(0 0 0)
(0 0 0)
(0 0 0)
(0 0 0)
(0 0 0)
(0 0 0)
(0 0 0)
(0 0 0)
(0 0 0)
(0 0 0)
(0 0 0)
(-1.52045e-14 1.96868e-12 0)
(-1.59917e-13 2.48893e-12 0)
(-4.9222e-14 3.85225e-13 0)
(-1.70502e-13 1.0291e-12 0)
(-1.0684e-12 4.7638e-12 0)
(-6.7893e-13 2.62261e-12 0)
(-2.03355e-12 5.91006e-12 0)
(-9.13385e-13 2.36739e-12 0)
(-3.9155e-13 7.64913e-13 0)
(-1.06976e-12 2.04366e-12 0)
(-1.25269e-12 2.05969e-12 0)
(-1.97895e-12 2.8971e-12 0)
(-1.88165e-12 2.51602e-12 0)
(-1.23281e-12 1.39265e-12 0)
(-8.36926e-13 8.26659e-13 0)
(0 0 0)
(-9.85402e-13 8.62004e-13 0)
(-1.62297e-12 1.17682e-12 0)
(-8.27928e-13 5.6234e-13 0)
(-2.00452e-12 1.13825e-12 0)
(-3.19774e-12 1.97739e-12 0)
(-7.19266e-13 2.70186e-13 0)
(-5.29316e-12 2.22863e-12 0)
(-3.15867e-12 1.07335e-12 0)
(-2.80615e-13 5.82215e-14 0)
(-5.28063e-12 1.41688e-12 0)
(-1.32772e-12 2.34441e-13 0)
(-9.59928e-13 4.36456e-14 0)
(-1.42975e-12 1.0808e-13 0)
(-3.32674e-12 -1.29745e-13 0)
(-1.59667e-12 -1.7485e-14 0)
(-9.5284e-13 -1.38102e-13 0)
(0 0 0)
(-3.1261e-13 -3.73339e-14 0)
(-1.40176e-12 -3.23795e-13 0)
(0 0 0)
(-1.59075e-12 -5.21996e-13 0)
(0 0 0)
(-1.51591e-12 -6.61438e-13 0)
(-2.36886e-12 -1.20966e-12 0)
(-2.0859e-12 -1.2067e-12 0)
(0 0 0)
(-2.30266e-12 -1.58023e-12 0)
(0 0 0)
(0 0 0)
(-1.10398e-12 -9.93921e-13 0)
(-4.38281e-13 -5.12765e-13 0)
(-9.04655e-13 -9.02702e-13 0)
(0 0 0)
(0 0 0)
(0 0 0)
(0 0 0)
(0 0 0)
(0 0 0)
(0 0 0)
(0 0 0)
(0 0 0)
(0 0 0)
(0 0 0)
(0 0 0)
(-1.59764e-14 3.20108e-12 0)
(-1.38646e-13 1.89034e-12 0)
(-8.49557e-13 6.99349e-12 0)
(-6.10457e-13 3.80848e-12 0)
(-1.00946e-12 4.81296e-12 0)
(-7.52782e-13 2.77436e-12 0)
(-6.022e-13 1.92626e-12 0)
(0 0 0)
(-2.80388e-12 6.23511e-12 0)
(-3.34395e-12 6.9557e-12 0)
(-2.37012e-12 4.29005e-12 0)
(-3.29126e-13 4.75488e-13 0)
(-2.02056e-12 2.79431e-12 0)
(-3.42498e-12 4.3168e-12 0)
(-1.54086e-12 1.7247e-12 0)
(-8.69143e-13 8.1697e-13 0)
(-1.20269e-12 1.04984e-12 0)
(-2.09345e-12 1.68893e-12 0)
(-2.69114e-12 2.05059e-12 0)
(-2.92174e-12 2.08253e-12 0)
(-4.84757e-13 2.58581e-13 0)
(-3.77002e-12 2.03202e-12 0)
(-4.67953e-12 2.21142e-12 0)
(-1.37801e-12 5.18913e-13 0)
(0 0 0)
(-4.49455e-12 1.48434e-12 0)
(-7.52362e-12 1.91906e-12 0)
(-6.56469e-12 1.4895e-12 0)
(-7.69147e-12 1.62318e-12 0)
(-3.43623e-12 3.44508e-13 0)
(-2.67186e-12 4.53635e-13 0)
(-5.49171e-12 -1.3321e-14 0)
(-2.15204e-12 -8.87395e-14 0)
(-5.16244e-12 -6.38834e-13 0)
(-3.16441e-12 -5.45151e-13 0)
(-8.09473e-13 -1.57641e-13 0)
(-4.30904e-12 -1.08269e-12 0)
(-1.9231e-12 -5.91631e-13 0)
(-3.06222e-12 -1.20481e-12 0)
(-8.70498e-14 -4.13233e-14 0)
(-1.45832e-12 -6.94802e-13 0)
(0 0 0)
(-1.47189e-12 -8.9964e-13 0)
(0 0 0)
(0 0 0)
(-8.2776e-13 -7.72787e-13 0)
(-6.06365e-13 -5.17591e-13 0)
(0 0 0)
(0 0 0)
(0 0 0)
(-1.02292e-12 -1.20389e-12 0)
(0 0 0)
(0 0 0)
(0 0 0)
(0 0 0)
(0 0 0)
(0 0 0)
(0 0 0)
(0 0 0)
(0 0 0)
(-9.73156e-14 3.1944e-12 0)
(-1.69824e-13 2.01718e-12 0)
(-8.40867e-13 6.93095e-12 0)
(-1.40811e-12 9.22383e-12 0)
(-9.02312e-13 4.47446e-12 0)
(-1.86727e-12 7.22333e-12 0)
(-2.70811e-12 9.97006e-12 0)
(-7.78039e-13 2.24248e-12 0)
(-3.44747e-12 9.15658e-12 0)
(-9.76978e-13 2.07805e-12 0)
(-4.86755e-12 9.55056e-12 0)
(-3.20334e-13 5.53607e-13 0)
(0 0 0)
(-2.77668e-12 3.65548e-12 0)
(-1.20829e-12 1.51851e-12 0)
(-2.85856e-12 3.4502e-12 0)
(-2.77912e-12 2.88717e-12 0)
(-1.72613e-12 1.65306e-12 0)
(-5.62891e-12 4.84825e-12 0)
(-1.90349e-12 1.4358e-12 0)
(-5.53292e-13 3.80326e-13 0)
(-8.83914e-13 5.44545e-13 0)
(-3.39513e-12 1.6644e-12 0)
(0 0 0)
(-2.22706e-12 1.04429e-12 0)
(-4.12191e-12 1.62804e-12 0)
(-5.68687e-12 1.8128e-12 0)
(-4.27244e-12 1.54463e-12 0)
(-7.72416e-12 1.86967e-12 0)
(-3.61816e-12 5.97235e-13 0)
(-1.69684e-13 3.18888e-14 0)
(-4.78249e-12 4.60039e-13 0)
(-6.62476e-12 1.978e-13 0)
(-1.396e-12 -5.34616e-14 0)
(-8.42926e-12 -6.26988e-13 0)
(-2.2357e-12 -3.5022e-13 0)
(-5.74186e-12 -1.16249e-12 0)
(0 0 0)
(-8.42915e-12 -2.59838e-12 0)
(-2.38312e-12 -7.73726e-13 0)
(-3.98289e-12 -1.68342e-12 0)
(-2.20196e-12 -1.06625e-12 0)
(0 0 0)
(-2.18828e-12 -1.25344e-12 0)
(0 0 0)
(0 0 0)
(-8.30487e-13 -7.39166e-13 0)
(0 0 0)
(0 0 0)
(0 0 0)
(0 0 0)
(0 0 0)
(0 0 0)
(0 0 0)
(0 0 0)
(0 0 0)
(0 0 0)
(0 0 0)
(0 0 0)
(0 0 0)
(-1.82342e-13 6.84425e-12 0)
(-7.05795e-13 9.26658e-12 0)
(-6.38034e-13 6.67757e-12 0)
(-1.45801e-12 9.69676e-12 0)
(-2.09935e-12 1.08721e-11 0)
(-2.74737e-12 1.17079e-11 0)
(-8.07907e-13 2.88353e-12 0)
(-1.90024e-12 6.01299e-12 0)
(-1.94167e-12 5.00285e-12 0)
(-5.91338e-12 1.40791e-11 0)
(-1.97586e-12 3.85542e-12 0)
(-8.24937e-13 1.42803e-12 0)
(-3.78053e-12 6.64329e-12 0)
(-2.94001e-12 4.30543e-12 0)
(-1.32743e-12 1.90831e-12 0)
(-2.35088e-12 3.10306e-12 0)
(-2.03288e-12 2.46841e-12 0)
(-1.96592e-12 2.02666e-12 0)
(-3.89502e-12 3.52433e-12 0)
(-7.53768e-12 6.25619e-12 0)
(-3.06704e-12 2.1512e-12 0)
(-3.2278e-12 2.25851e-12 0)
(-3.91326e-12 2.78485e-12 0)
(-2.72292e-12 1.66031e-12 0)
(-2.7711e-12 1.37092e-12 0)
(-2.92727e-12 1.16776e-12 0)
(-3.47871e-13 1.64588e-13 0)
(-3.39027e-12 1.40236e-12 0)
(0 0 0)
(0 0 0)
(-3.03315e-12 6.50867e-13 0)
(-7.34242e-13 1.29721e-13 0)
(-4.78811e-12 3.43173e-13 0)
(-5.5827e-12 4.35112e-13 0)
(-3.58985e-12 -1.0841e-13 0)
(-5.07776e-12 -3.85763e-13 0)
(-7.80934e-12 -1.08063e-12 0)
(-3.51875e-12 -6.14391e-13 0)
(-3.43223e-12 -8.44731e-13 0)
(-2.12595e-12 -5.02414e-13 0)
(0 0 0)
(0 0 0)
(-1.20508e-11 -5.36209e-12 0)
(0 0 0)
(-2.4071e-12 -1.48593e-12 0)
(0 0 0)
(0 0 0)
(0 0 0)
(0 0 0)
(0 0 0)
(0 0 0)
(0 0 0)
(0 0 0)
(0 0 0)
(0 0 0)
(0 0 0)
(0 0 0)
(0 0 0)
(0 0 0)
(0 0 0)
(-5.93595e-14 9.30068e-12 0)
(-7.45797e-13 1.07689e-11 0)
(-6.6e-13 6.76076e-12 0)
(-8.69504e-13 7.3633e-12 0)
(-8.9386e-13 5.10052e-12 0)
(-3.07432e-12 1.32375e-11 0)
(-4.45186e-12 1.63096e-11 0)
(-1.71281e-12 5.64326e-12 0)
(-5.67295e-12 1.65648e-11 0)
(-2.92212e-12 7.43653e-12 0)
(-7.62264e-12 1.72195e-11 0)
(-3.16055e-12 6.50966e-12 0)
(-3.94155e-13 7.76225e-13 0)
(-6.53907e-12 1.08164e-11 0)
(-1.88313e-12 2.99338e-12 0)
(-5.12353e-12 6.69703e-12 0)
(-4.3682e-12 5.36876e-12 0)
(-4.68816e-12 5.3877e-12 0)
(0 0 0)
(-6.55497e-14 5.80713e-14 0)
(-4.59095e-12 3.9337e-12 0)
(-1.22012e-11 9.66554e-12 0)
(-4.66659e-12 3.79316e-12 0)
(-5.90938e-12 3.80556e-12 0)
(-5.8782e-12 3.44816e-12 0)
(-2.87067e-12 1.37037e-12 0)
(-6.76681e-12 3.73527e-12 0)
(-1.68727e-11 8.17259e-12 0)
(-1.2515e-11 5.17239e-12 0)
(-3.46318e-12 1.06475e-12 0)
(-4.47433e-12 1.39274e-12 0)
(-1.04852e-11 2.31942e-12 0)
(0 0 0)
(-5.44315e-12 8.89836e-13 0)
(-1.35277e-11 9.89741e-13 0)
(-1.34784e-11 5.41282e-13 0)
(-7.47033e-12 -7.04094e-13 0)
(-5.60365e-12 -5.7146e-13 0)
(-5.20627e-12 -6.62645e-13 0)
(-6.53656e-12 -1.2697e-12 0)
(-7.8553e-12 -1.7087e-12 0)
(-1.18327e-11 -3.17645e-12 0)
(-1.44496e-11 -4.79968e-12 0)
(-4.51456e-12 -1.74548e-12 0)
(0 0 0)
(0 0 0)
(0 0 0)
(0 0 0)
(0 0 0)
(0 0 0)
(0 0 0)
(0 0 0)
(0 0 0)
(0 0 0)
(0 0 0)
(0 0 0)
(0 0 0)
(0 0 0)
(0 0 0)
(0 0 0)
(-3.8237e-13 1.98733e-11 0)
(-1.06795e-12 1.76876e-11 0)
(-7.57512e-13 8.02316e-12 0)
(-4.68603e-13 4.13748e-12 0)
(-6.06971e-13 3.78881e-12 0)
(-2.38143e-12 1.10953e-11 0)
(-3.19524e-12 1.31203e-11 0)
(-4.63412e-13 1.55861e-12 0)
(-6.92956e-12 2.08582e-11 0)
(0 0 0)
(-6.99994e-12 1.66508e-11 0)
(-8.15746e-12 1.73007e-11 0)
(-3.02813e-12 5.92539e-12 0)
(-4.47471e-12 7.90519e-12 0)
(-2.28022e-12 3.80396e-12 0)
(-6.94121e-12 1.02899e-11 0)
(-1.24349e-11 1.6601e-11 0)
(-2.57736e-12 3.01889e-12 0)
(-4.624e-12 5.06689e-12 0)
(-1.15547e-11 1.18932e-11 0)
(-3.6223e-12 3.42659e-12 0)
(-1.03875e-11 9.00664e-12 0)
(-1.02959e-11 9.13798e-12 0)
(-9.32978e-13 7.4999e-13 0)
(-4.77164e-12 3.68909e-12 0)
(-4.00248e-12 2.4721e-12 0)
(-7.31425e-12 4.53142e-12 0)
(-1.00202e-11 5.22405e-12 0)
(-4.24381e-12 1.82039e-12 0)
(-9.86361e-13 3.95082e-13 0)
(-8.28775e-13 3.27425e-13 0)
(-1.46434e-11 5.44383e-12 0)
(-4.60056e-12 9.97939e-13 0)
(-7.08315e-12 1.80101e-12 0)
(-5.95518e-12 1.24148e-12 0)
(-1.14475e-11 1.32926e-12 0)
(0 0 0)
(-7.08147e-12 -2.43401e-13 0)
(-5.72435e-12 -1.76525e-13 0)
(-1.30698e-11 -1.33103e-12 0)
(0 0 0)
(-8.00177e-12 -1.63646e-12 0)
(-2.92457e-13 -7.60735e-14 0)
(0 0 0)
(0 0 0)
(0 0 0)
(0 0 0)
(0 0 0)
(0 0 0)
(0 0 0)
(0 0 0)
(0 0 0)
(0 0 0)
(0 0 0)
(0 0 0)
(0 0 0)
(0 0 0)
(0 0 0)
(0 0 0)
(0 0 0)
(-1.27115e-13 9.23575e-12 0)
(-2.32354e-13 3.57697e-12 0)
(-3.75832e-13 4.15722e-12 0)
(-3.38099e-12 2.79176e-11 0)
(-1.74504e-12 1.26436e-11 0)
(-6.43123e-13 3.87148e-12 0)
(-2.17875e-12 9.44009e-12 0)
(-2.28495e-12 8.60506e-12 0)
(-6.33955e-12 2.19673e-11 0)
(-4.18865e-12 1.27075e-11 0)
(-6.78138e-12 1.77311e-11 0)
(-5.70633e-12 1.34926e-11 0)
(-3.89773e-12 8.23763e-12 0)
(-6.56826e-12 1.38192e-11 0)
(-2.44509e-12 4.69077e-12 0)
(-2.7775e-12 4.63396e-12 0)
(0 0 0)
(-7.43467e-12 1.00346e-11 0)
(-4.22699e-12 6.64698e-12 0)
(-5.21381e-14 5.38562e-14 0)
(-5.53641e-12 5.89017e-12 0)
(-7.78447e-12 8.09585e-12 0)
(-1.20463e-11 1.08206e-11 0)
(-7.50396e-12 7.46857e-12 0)
(-8.15048e-12 6.41581e-12 0)
(-9.08279e-12 6.74881e-12 0)
(-1.06678e-11 6.63092e-12 0)
(-1.28444e-11 7.70165e-12 0)
(0 0 0)
(-3.96987e-12 1.65149e-12 0)
(-1.09892e-11 6.7956e-12 0)
(-6.70905e-12 3.1829e-12 0)
(-1.44894e-11 6.45994e-12 0)
(-1.39004e-11 5.55756e-12 0)
(-6.44309e-12 1.98194e-12 0)
(-1.47976e-11 3.98586e-12 0)
(-6.46742e-12 7.83433e-13 0)
(-2.02157e-12 2.07202e-13 0)
(-1.90388e-11 1.43181e-12 0)
(-1.02186e-11 2.96366e-13 0)
(0 0 0)
(-3.91591e-12 -7.69927e-13 0)
(-1.44185e-11 -3.16192e-12 0)
(0 0 0)
(0 0 0)
(-2.81521e-12 -1.12906e-12 0)
(0 0 0)
(-7.35656e-13 -4.20313e-13 0)
(-4.39859e-12 -2.59595e-12 0)
(0 0 0)
(0 0 0)
(0 0 0)
(0 0 0)
(0 0 0)
(0 0 0)
(0 0 0)
(0 0 0)
(0 0 0)
(0 0 0)
(0 0 0)
(-1.33908e-13 9.73137e-12 0)
(-6.29479e-13 1.04528e-11 0)
(-6.16067e-13 8.07059e-12 0)
(-1.78706e-12 1.63747e-11 0)
(-1.88231e-12 1.33662e-11 0)
(-3.81271e-12 2.48633e-11 0)
(-3.79544e-12 1.97044e-11 0)
(-3.50734e-12 1.49053e-11 0)
(-6.89207e-12 2.57914e-11 0)
(-7.16548e-12 2.39147e-11 0)
(-2.65236e-12 7.98459e-12 0)
(-4.73135e-12 1.26935e-11 0)
(-4.13431e-12 9.86662e-12 0)
(-6.94175e-12 1.4955e-11 0)
(-8.14123e-12 1.64837e-11 0)
(-1.15279e-11 2.18206e-11 0)
(-3.61489e-12 6.80784e-12 0)
(-1.07875e-11 1.95057e-11 0)
(-8.37875e-12 1.31295e-11 0)
(-8.02594e-12 1.01791e-11 0)
(-6.9586e-12 9.01422e-12 0)
(-4.14761e-12 4.81315e-12 0)
(-1.47018e-12 1.58085e-12 0)
(0 0 0)
(-4.58332e-12 3.80887e-12 0)
(-1.08929e-11 1.01728e-11 0)
(-1.18048e-11 9.53154e-12 0)
(-1.02199e-11 7.57112e-12 0)
(-1.16969e-11 7.63096e-12 0)
(-1.75832e-11 1.16347e-11 0)
(-8.58915e-12 6.21343e-12 0)
(-1.19817e-11 6.9911e-12 0)
(-4.48992e-12 1.5259e-12 0)
(-1.2584e-11 3.7718e-12 0)
(-9.56278e-12 4.14487e-12 0)
(-3.22344e-11 9.5544e-12 0)
(-8.5046e-12 1.74894e-12 0)
(-1.72557e-11 3.77994e-12 0)
(-4.84946e-12 3.83166e-13 0)
(-2.4066e-11 3.48155e-12 0)
(-5.83536e-12 8.44453e-13 0)
(0 0 0)
(-8.35538e-12 2.0391e-13 0)
(-3.35864e-11 -9.14529e-12 0)
(0 0 0)
(-2.93617e-11 -1.41194e-11 0)
(0 0 0)
(0 0 0)
(0 0 0)
(-1.76072e-11 -1.92787e-11 0)
(-2.78192e-12 -2.60827e-12 0)
(0 0 0)
(0 0 0)
(0 0 0)
(0 0 0)
(0 0 0)
(0 0 0)
(0 0 0)
(0 0 0)
(0 0 0)
(-1.24889e-13 8.3876e-12 0)
(-3.80949e-13 1.03072e-11 0)
(-1.73622e-12 2.60701e-11 0)
(-1.18341e-12 1.29684e-11 0)
(-1.84261e-12 1.63425e-11 0)
(-2.07053e-12 1.43996e-11 0)
(-6.64967e-12 3.96097e-11 0)
(-2.67942e-12 1.44106e-11 0)
(-6.12133e-12 2.69324e-11 0)
(-4.99267e-12 1.81487e-11 0)
(-3.885e-12 1.28765e-11 0)
(-1.19572e-11 3.7004e-11 0)
(-6.48036e-14 2.07114e-13 0)
(-8.00792e-12 2.16443e-11 0)
(-7.59639e-12 1.8919e-11 0)
(-5.31202e-12 1.24273e-11 0)
(-5.23003e-12 1.10163e-11 0)
(-1.27424e-11 2.36322e-11 0)
(-7.2498e-12 1.29941e-11 0)
(0 0 0)
(-5.38493e-12 1.04924e-11 0)
(-2.54115e-12 4.76719e-12 0)
(-2.74173e-11 3.90789e-11 0)
(-6.86372e-12 9.81508e-12 0)
(-5.80888e-12 6.17277e-12 0)
(0 0 0)
(-1.39699e-12 1.20791e-12 0)
(-9.70486e-12 9.7338e-12 0)
(-8.26915e-12 9.7836e-12 0)
(-2.75323e-12 2.08927e-12 0)
(-1.39622e-11 1.20154e-11 0)
(-1.17026e-11 1.03002e-11 0)
(-2.343e-11 1.49948e-11 0)
(-1.71039e-11 1.56159e-11 0)
(-1.12982e-11 9.01884e-12 0)
(-2.05998e-11 1.25084e-11 0)
(-1.16528e-11 8.35346e-12 0)
(-2.7341e-11 1.67491e-11 0)
(-1.30172e-11 4.62866e-12 0)
(-2.60428e-11 1.14832e-11 0)
(-4.27886e-12 7.4138e-13 0)
(-1.47542e-11 4.26358e-12 0)
(-5.62062e-12 4.06859e-13 0)
(-1.16074e-11 -1.07735e-12 0)
(-8.57019e-13 -1.28172e-13 0)
(0 0 0)
(0 0 0)
(0 0 0)
(0 0 0)
(0 0 0)
(-2.68531e-11 -9.53104e-12 0)
(0 0 0)
(0 0 0)
(0 0 0)
(0 0 0)
(0 0 0)
(0 0 0)
(0 0 0)
(0 0 0)
(0 0 0)
(-1.79605e-13 1.70123e-11 0)
(-8.37422e-13 2.49076e-11 0)
(-7.37281e-13 1.45652e-11 0)
(-5.48119e-13 8.72745e-12 0)
(-1.13621e-12 9.99984e-12 0)
(-2.51572e-12 2.23958e-11 0)
(-3.38816e-12 2.68511e-11 0)
(-2.39286e-12 1.38441e-11 0)
(-3.75351e-12 2.03572e-11 0)
(-1.63473e-12 8.04631e-12 0)
(-7.80291e-12 3.80651e-11 0)
(-7.26455e-12 2.91719e-11 0)
(-4.84205e-12 1.94127e-11 0)
(-1.60167e-12 5.06502e-12 0)
(-6.87905e-12 2.2193e-11 0)
(-5.10145e-12 1.50277e-11 0)
(-7.79211e-12 1.9883e-11 0)
(-1.33533e-13 2.74492e-13 0)
(-1.09104e-11 2.62218e-11 0)
(-1.92923e-12 5.14981e-12 0)
(-9.73614e-12 1.99487e-11 0)
(-1.33472e-11 2.70513e-11 0)
(-1.121e-11 2.27932e-11 0)
(-1.44436e-12 2.37772e-12 0)
(-7.43978e-12 1.21444e-11 0)
(-6.87755e-12 1.32156e-11 0)
(0 0 0)
(-9.07724e-12 1.19608e-11 0)
(-4.09911e-12 5.06813e-12 0)
(-5.45455e-12 9.09732e-12 0)
(-1.27114e-11 1.70861e-11 0)
(-6.82017e-12 7.31626e-12 0)
(0 0 0)
(0 0 0)
(-9.95662e-12 8.4827e-12 0)
(-1.62644e-11 1.83006e-11 0)
(-2.94378e-11 2.19104e-11 0)
(-2.19562e-11 1.72247e-11 0)
(-9.3255e-13 8.967e-13 0)
(-4.67566e-11 3.61595e-11 0)
(-2.5821e-11 1.87752e-11 0)
(0 0 0)
(0 0 0)
(-1.53347e-11 1.23231e-11 0)
(0 0 0)
(-9.8256e-12 7.04294e-12 0)
(-2.31956e-12 1.90077e-12 0)
(0 0 0)
(-7.93219e-12 5.51276e-12 0)
(0 0 0)
(0 0 0)
(0 0 0)
(0 0 0)
(0 0 0)
(0 0 0)
(0 0 0)
(0 0 0)
(0 0 0)
(0 0 0)
(0 0 0)
(-1.3255e-13 2.02179e-11 0)
(-3.92362e-13 1.56133e-11 0)
(-1.92241e-12 4.09746e-11 0)
(-2.88456e-12 4.52826e-11 0)
(-1.84807e-12 2.17733e-11 0)
(0 0 0)
(-2.37653e-12 1.81989e-11 0)
(-3.17325e-12 2.15484e-11 0)
(-4.30739e-12 2.70391e-11 0)
(-6.92479e-12 3.84692e-11 0)
(-1.88794e-12 1.0735e-11 0)
(-6.06371e-12 2.80332e-11 0)
(-2.28611e-12 9.66135e-12 0)
(-5.94207e-12 2.33838e-11 0)
(-2.64346e-12 7.85436e-12 0)
(-6.22764e-12 2.31353e-11 0)
(-6.12525e-12 1.88817e-11 0)
(-3.26955e-12 8.35164e-12 0)
(-8.02088e-12 2.39505e-11 0)
(-4.35167e-12 1.13878e-11 0)
(-3.5342e-12 9.3438e-12 0)
(-1.53487e-11 3.6609e-11 0)
(-6.51595e-12 1.46611e-11 0)
(-6.15266e-12 1.48607e-11 0)
(-1.20117e-12 2.45437e-12 0)
(-1.58194e-12 3.136e-12 0)
(-6.44039e-12 1.47884e-11 0)
(-7.63335e-12 1.34918e-11 0)
(-1.74068e-11 2.86015e-11 0)
(-2.52432e-11 5.01594e-11 0)
(0 0 0)
(-1.28958e-11 1.93018e-11 0)
(-1.07272e-11 2.11045e-11 0)
(-2.15773e-11 3.35386e-11 0)
(-1.18624e-11 1.67185e-11 0)
(0 0 0)
(-2.53992e-11 3.52197e-11 0)
(-1.23792e-11 1.84273e-11 0)
(-9.70064e-12 1.62299e-11 0)
(-1.47104e-11 1.93076e-11 0)
(-1.90593e-11 2.87632e-11 0)
(-2.68198e-11 3.2189e-11 0)
(-9.40885e-12 1.26271e-11 0)
(-4.85907e-12 7.48436e-12 0)
(0 0 0)
(-1.5806e-11 2.35516e-11 0)
(-1.60063e-11 1.65219e-11 0)
(-2.75741e-12 2.89256e-12 0)
(-1.39834e-11 1.338e-11 0)
(0 0 0)
(0 0 0)
(0 0 0)
(0 0 0)
(0 0 0)
(0 0 0)
(0 0 0)
(0 0 0)
(0 0 0)
(0 0 0)
(-1.75004e-13 -4.51612e-13 0)
(-1.23607e-14 8.47897e-12 0)
(0 0 0)
(-5.6263e-13 1.57448e-11 0)
(-1.98532e-12 4.20903e-11 0)
(-2.32419e-12 3.51518e-11 0)
(-4.34552e-13 7.32823e-12 0)
(0 0 0)
(-6.86964e-12 5.90538e-11 0)
(-2.00105e-12 1.38254e-11 0)
(-4.45266e-12 3.11968e-11 0)