/*--------------------------------*- C++ -*----------------------------------*\
| =========                 |                                                 |
| \\      /  F ield         | OpenFOAM: The Open Source CFD Toolbox           |
|  \\    /   O peration     | Version:  v1906                                 |
|   \\  /    A nd           | Web:      www.OpenFOAM.com                      |
|    \\/     M anipulation  |                                                 |
\*---------------------------------------------------------------------------*/
FoamFile
{
    version     2.0;
    format      ascii;
    class       volScalarField::Internal;
    location    "2.83";
    object      coalCloud1:hsTrans;
}
// * * * * * * * * * * * * * * * * * * * * * * * * * * * * * * * * * * * * * //

dimensions      [1 2 -2 0 0 0 0];


value           nonuniform List<scalar> 
26400
(
-1.54945e-06
-2.73652e-06
-3.59663e-06
-1.1791e-06
-4.5163e-06
-2.11572e-06
-3.18017e-06
-2.01477e-06
-1.0603e-06
-4.14935e-06
-1.94974e-06
-4.30012e-06
-5.59982e-07
-6.27797e-07
-2.01031e-06
-3.53933e-06
-1.36046e-06
-2.1187e-06
-6.30106e-06
-2.763e-06
-1.20425e-06
-4.50612e-07
-1.95633e-06
-5.18153e-06
-5.81775e-07
-2.12023e-06
-2.71564e-06
-1.30961e-06
-1.88193e-06
-7.81781e-07
-1.41283e-06
-2.07596e-06
-3.67959e-06
-1.36663e-06
-7.27671e-07
-4.70503e-06
-1.80632e-06
-2.9372e-06
0
0
0
-2.50764e-06
0
-4.42381e-07
0
0
0
0
-1.28624e-06
0
0
0
0
0
0
0
0
0
0
0
-3.1775e-06
-4.49729e-06
-5.59587e-06
-3.5195e-06
-1.19735e-06
-2.18288e-06
-4.45178e-06
-1.45938e-06
-1.43302e-06
-1.11767e-06
-3.03879e-06
-1.99346e-06
-2.57939e-06
-1.25606e-06
-1.89303e-06
-1.61094e-07
-1.26319e-06
-5.04052e-07
-1.00113e-06
-3.60898e-06
-2.76302e-06
-2.82455e-07
-3.28769e-06
-1.15278e-06
-5.49803e-07
0
-2.79525e-06
-1.61809e-07
-9.42012e-07
-2.05087e-07
-2.55311e-06
-2.28314e-06
0
-1.18381e-06
-2.21882e-06
0
0
-4.37228e-06
-2.02114e-06
-3.20569e-06
-1.40178e-06
0
-2.79969e-08
-2.6942e-06
0
0
0
-1.95743e-06
-7.97913e-07
0
0
0
0
0
0
0
0
0
0
0
-1.98443e-06
-1.12412e-06
-2.55163e-06
-5.68759e-06
0
-3.76826e-06
-2.90598e-06
-2.03583e-06
-1.53483e-06
-3.85152e-06
-2.10615e-06
0
-2.32057e-06
-4.27348e-06
-5.50914e-06
-4.06092e-06
-2.5506e-06
-2.36779e-06
-2.37248e-06
-6.48942e-07
-8.77237e-07
-9.91339e-07
0
-1.86552e-06
-2.83597e-06
-1.4277e-06
-2.36519e-06
-9.87053e-07
-2.53253e-06
-1.16995e-06
-2.59737e-07
-8.36104e-07
-1.69909e-06
0
0
-2.57052e-06
-4.63729e-06
-3.13764e-06
-1.3207e-06
-2.65201e-06
-9.32334e-07
-2.37631e-06
-2.34257e-06
-1.23786e-06
-1.98317e-06
-1.32875e-06
0
0
0
0
0
0
0
0
0
0
0
0
0
0
-9.19329e-07
-1.06404e-06
-2.54544e-06
-1.14244e-06
-2.77982e-06
-3.31058e-06
-3.06092e-06
-5.28779e-06
-1.2352e-06
-3.02401e-06
-3.36327e-06
-6.46644e-07
-1.90399e-06
-2.78873e-06
-9.13133e-07
-2.07485e-06
-3.84304e-07
-4.6488e-06
0
-1.91848e-06
-5.71313e-07
-3.41534e-06
-7.19523e-07
-1.19192e-06
-2.84884e-06
0
-8.68351e-07
-8.77286e-07
-2.34671e-06
-1.94791e-06
-4.45191e-07
0
-2.13679e-06
-1.9258e-06
-3.19329e-06
-9.39223e-07
-2.40848e-06
-7.44623e-07
0
-2.09169e-06
-1.00421e-06
-4.29159e-07
-2.86822e-06
-4.00812e-06
0
-3.99142e-07
-2.97492e-06
-1.40516e-06
0
0
0
0
0
0
0
0
0
0
0
0
-3.5993e-06
-2.07622e-06
-1.58657e-06
-3.25455e-06
-1.76599e-06
-3.15075e-06
-2.5657e-06
-5.56641e-06
-7.57493e-07
-2.125e-06
-3.36717e-06
-6.3384e-07
0
-3.22025e-06
-3.96382e-06
-3.91909e-06
-7.21412e-07
-5.72436e-07
-5.10724e-06
-7.18418e-07
-2.12582e-06
-8.10755e-07
-3.04947e-06
-2.76747e-06
-1.33892e-06
-4.12734e-06
-3.40523e-06
-4.55527e-07
-2.52905e-06
-2.25475e-06
-4.41479e-06
-1.5271e-06
-2.55466e-06
-2.88922e-06
-3.46209e-07
-3.26973e-06
-9.5256e-07
0
-2.31126e-06
0
-1.20282e-06
-8.35981e-07
-2.95157e-06
-5.13323e-06
-7.31746e-07
-1.3131e-06
0
-2.88344e-07
0
0
0
0
0
0
0
0
0
0
0
0
-3.43392e-06
-5.82555e-06
-1.54081e-06
-1.80439e-06
-5.0109e-06
-4.95642e-06
-4.37978e-06
-5.68912e-06
-5.89047e-07
-8.75543e-07
-3.54715e-06
-2.00177e-06
0
-2.15436e-06
-2.07351e-06
-1.21393e-06
0
0
-4.96293e-07
-3.35518e-06
-4.04595e-06
-5.0473e-06
-1.35786e-06
-1.47264e-06
0
0
-2.34247e-06
0
-3.85368e-07
-3.16111e-06
-8.82148e-07
-8.84834e-07
-4.55089e-06
0
-7.9761e-07
-4.96682e-06
-2.43923e-07
-1.74236e-06
-1.26331e-06
-1.7114e-06
-2.73346e-07
-3.75795e-06
-1.92963e-06
0
-2.79442e-06
-3.01688e-06
0
0
0
0
0
0
0
0
0
0
0
0
0
0
-3.35454e-06
-4.69829e-06
-2.04037e-06
-6.90381e-07
-2.71472e-07
-3.82902e-06
-1.69154e-06
-3.39734e-06
-2.66923e-06
-1.88042e-06
-1.81885e-06
-5.97263e-06
-3.79147e-06
-1.53418e-06
-2.00336e-06
-8.82984e-07
-2.27948e-06
-6.67605e-07
-5.68726e-07
-2.53282e-06
-8.12083e-07
-4.42348e-06
0
0
-3.35555e-06
-3.59706e-06
-2.18735e-06
0
-7.72806e-07
-7.21516e-07
-2.31552e-06
-1.04714e-06
-1.73943e-06
-1.39653e-06
-2.97687e-06
-4.03987e-06
-1.09209e-06
0
-1.93532e-07
-1.64897e-06
-1.18285e-06
0
-1.48705e-06
-3.78427e-07
-2.84893e-06
0
0
0
-3.39912e-06
0
0
0
0
0
0
0
0
0
0
0
-1.34862e-06
-3.80812e-06
-4.07299e-06
-3.2176e-06
-2.16287e-06
-3.01368e-06
-5.49904e-06
-3.33537e-06
-2.10969e-06
-2.51203e-06
-2.28501e-06
-1.88846e-06
-1.90488e-06
-4.32728e-06
-4.34253e-06
-1.75744e-06
-2.78816e-06
-6.20607e-07
-5.3024e-07
-1.57494e-06
-3.33164e-06
0
-4.42633e-07
-4.50919e-06
-1.76497e-07
-1.6077e-06
-7.61696e-06
-1.85706e-06
0
-2.76295e-07
-1.36217e-07
-2.3761e-06
-5.83318e-06
-3.2731e-06
-2.8742e-06
-1.0135e-06
-4.50398e-06
-3.59073e-06
-1.86834e-06
-6.37644e-06
-8.09047e-07
-1.39977e-06
-2.59178e-06
-1.03707e-06
-6.1283e-07
0
0
0
-2.03519e-07
0
0
0
0
0
0
0
0
0
0
0
-7.47487e-07
-2.16234e-06
-4.50458e-06
-3.19403e-06
-1.12769e-06
-2.88309e-06
-1.86332e-06
-1.33053e-06
-8.1919e-07
-2.46013e-06
-2.50228e-06
-4.23578e-06
-6.89037e-07
-9.03604e-06
-5.09465e-06
-4.59047e-06
-4.29566e-06
-2.73526e-06
-5.59795e-08
-1.35225e-06
0
-2.63064e-06
-9.79171e-07
-4.81138e-06
0
-2.43154e-06
0
-2.53978e-06
-1.25858e-06
-8.85353e-07
-3.51226e-06
-3.74579e-07
-2.63256e-06
-5.2143e-06
0
-6.03305e-07
0
-1.18686e-06
-1.09554e-06
-3.28633e-06
-1.43975e-06
-2.15077e-06
-3.31762e-06
-1.40824e-06
-1.06657e-06
0
0
0
-2.68239e-06
0
0
0
0
0
0
0
0
0
0
0
-1.97106e-06
-3.20539e-06
-2.7023e-06
-3.06021e-08
-6.79116e-07
-2.65022e-06
-3.90509e-06
-8.43576e-06
-2.59246e-06
-2.36005e-07
-4.13855e-06
-1.66924e-06
-1.98504e-06
-3.12985e-06
-3.99076e-06
-1.52831e-06
-1.78875e-06
-3.109e-06
-1.54418e-06
-2.07614e-06
-3.78039e-08
-2.06353e-07
-4.21255e-06
-1.41783e-06
-3.1078e-06
0
-6.2991e-07
-3.89441e-06
-2.09868e-06
-4.46229e-06
-8.57274e-07
-2.59474e-06
-1.19006e-06
-4.01867e-06
-2.5361e-06
-3.60301e-06
-2.28256e-06
-9.72986e-07
0
-6.15742e-07
0
-1.29029e-06
-9.3338e-07
-1.41954e-06
-4.57342e-06
-1.99218e-06
-3.88506e-06
-1.90761e-06
0
0
0
0
0
0
0
0
0
0
0
0
-2.84794e-06
-3.83577e-06
-4.12747e-07
-1.15634e-06
-4.79159e-06
-1.14662e-06
-5.99741e-06
-2.61682e-06
-2.70206e-06
-2.07874e-06
-1.61603e-06
-2.00824e-06
-2.64237e-06
-2.98634e-06
-2.29133e-06
0
-6.81334e-07
-2.26216e-06
-1.8787e-06
-2.55436e-06
-2.06345e-06
-1.08424e-06
-2.98214e-06
-2.44212e-06
-3.53926e-07
-2.96615e-06
-8.86427e-07
-1.93748e-06
-1.33887e-06
-3.85851e-06
-1.23897e-06
-6.60646e-07
0
-1.32944e-07
-9.20755e-07
0
-1.37905e-06
0
-1.36274e-06
-2.91724e-06
-2.43374e-06
0
-3.23288e-06
0
0
-1.86064e-06
-1.15642e-06
-1.81239e-06
0
0
0
0
0
0
0
0
0
0
0
0
-3.98755e-06
-2.08409e-06
-3.37549e-06
-1.88947e-06
-2.15207e-06
-1.23524e-06
-1.12773e-06
0
-6.26378e-06
-3.84192e-06
-2.61968e-06
-3.61684e-07
-3.29679e-06
-4.50504e-06
-2.83811e-06
-1.92436e-06
-7.71777e-07
-4.0135e-06
-1.61721e-06
-2.14157e-06
-6.0188e-07
-3.07123e-06
-4.30497e-06
-1.20127e-06
0
-1.94364e-06
-3.35719e-06
-2.99927e-06
-4.32195e-06
-2.1274e-06
-6.95127e-07
-3.89083e-06
-7.94664e-07
-2.42327e-06
-3.2547e-06
-3.23873e-07
-2.30666e-06
-9.73474e-07
-2.24865e-06
-1.22275e-07
-1.66736e-06
0
-1.22487e-06
0
0
-1.6615e-06
-7.00982e-07
0
0
0
-1.98548e-06
0
0
0
0
0
0
0
0
0
-2.70024e-06
-2.01513e-06
-4.23945e-06
-7.43842e-06
-2.15305e-06
-3.75746e-06
-2.78165e-06
-7.43148e-07
-2.95453e-06
-9.35767e-07
-5.76451e-06
-2.76284e-07
0
-2.66142e-06
-1.51764e-06
-1.73678e-06
-2.70564e-06
-6.85368e-07
-5.72046e-06
-1.35144e-06
-5.50373e-07
-6.06824e-07
-2.77472e-06
0
-8.19134e-07
-1.79228e-06
-2.85781e-06
-1.04027e-06
-3.46398e-06
-3.09815e-06
-3.66451e-08
-2.00697e-06
-2.30089e-06
-4.36853e-07
-3.83554e-06
-8.8067e-07
-2.84532e-06
0
-4.88279e-06
-9.69104e-07
-2.69294e-06
-1.34781e-06
0
-1.32237e-06
0
0
-9.0155e-07
0
0
0
0
0
0
0
0
0
0
0
0
0
-4.70022e-06
-3.69197e-06
-2.24551e-06
-3.03365e-06
-4.88997e-06
-5.16087e-06
-1.16617e-06
-1.3468e-06
-1.90045e-06
-4.94263e-06
-2.75432e-06
-6.98355e-07
-4.08824e-06
-3.08962e-06
-8.35456e-07
-1.09229e-06
-6.03024e-07
-7.23146e-07
-3.35362e-06
-4.01287e-06
-2.20163e-06
-1.41067e-06
-1.11961e-06
-9.28104e-07
-7.79315e-07
-2.08861e-06
-8.39748e-08
-7.5983e-07
0
0
-1.0009e-06
-2.39857e-07
-1.35107e-06
-1.44059e-06
-1.56779e-06
-2.99664e-06
-3.91608e-06
-1.98621e-06
-2.37322e-06
-6.2292e-07
0
0
-6.18612e-06
0
-1.53351e-06
0
0
0
0
0
0
0
0
0
0
0
0
0
0
0
-3.00518e-06
-3.43341e-06
-1.64278e-06
-1.49358e-06
-2.17493e-06
-4.01343e-06
-6.2608e-06
-2.52853e-06
-4.04331e-06
-2.20376e-06
-4.93013e-06
-2.78141e-06
-1.88376e-07
-6.05558e-06
-7.75867e-07
-3.37468e-06
-2.41337e-06
-1.7821e-06
0
-2.82242e-08
-2.57513e-06
-4.29664e-06
-1.23798e-06
-2.24534e-06
-2.67701e-06
-2.29907e-06
-1.31608e-06
-4.06706e-06
-3.35131e-06
-2.51861e-06
-1.011e-06
-3.46731e-06
0
-9.67337e-07
-2.93513e-06
-3.73457e-06
-4.86041e-06
-1.75358e-06
-2.14286e-06
-2.41068e-06
-2.84709e-06
-3.70858e-06
-4.83653e-06
-1.80903e-06
0
0
0
0
0
0
0
0
0
0
0
0
0
0
0
0
-5.91475e-06
-3.69834e-06
-1.59715e-06
-7.83662e-07
-9.96381e-07
-2.52137e-06
-4.67878e-06
-6.31017e-07
-6.49905e-06
0
-4.05728e-06
-5.94259e-06
-1.55772e-06
-2.0184e-06
-8.93303e-07
-4.17978e-06
-6.6927e-06
-2.60992e-06
-2.2498e-06
-5.7759e-06
-1.67075e-06
-3.06834e-06
-2.83346e-06
-2.31311e-07
-9.4929e-07
-9.46929e-07
-2.21253e-06
-2.72384e-06
-1.09452e-06
-3.33346e-07
-1.53649e-07
-2.4581e-06
-1.01607e-06
-9.88505e-07
-8.77192e-07
-1.82976e-06
0
-2.90698e-06
-9.64266e-07
-2.67723e-06
0
-2.56211e-06
-7.35347e-08
0
0
0
0
0
0
0
0
0
0
0
0
0
0
0
0
0
-1.84248e-06
-8.40441e-07
-5.66077e-07
-6.26525e-06
-2.04433e-06
-4.3788e-07
-2.32278e-06
-1.89418e-06
-3.92624e-06
-3.53418e-06
-4.03462e-06
-4.24385e-06
-2.31347e-06
-2.71612e-06
-7.64769e-07
-9.6981e-07
0
-3.01053e-06
-9.56914e-07
-3.88213e-08
-1.93765e-06
-1.79968e-06
-4.48713e-06
-1.39973e-06
-1.69742e-06
-2.09425e-06
-4.81415e-06
-3.92458e-06
0
-1.36037e-06
-1.40397e-06
-8.97518e-07
-2.41161e-06
-1.98437e-06
-7.14172e-07
-1.6499e-06
-1.33158e-06
-4.35173e-07
-2.47535e-06
-1.35017e-06
0
-1.21414e-06
-2.79269e-06
0
0
-6.74624e-07
0
-3.12295e-07
-1.4847e-06
0
0
0
0
0
0
0
0
0
0
0
-2.50096e-06
-2.31394e-06
-1.06389e-06
-3.74867e-06
-2.52486e-06
-2.82119e-06
-3.70169e-06
-3.17783e-06
-3.91565e-06
-4.82759e-06
-1.32184e-06
-2.53567e-06
-2.47552e-06
-2.66553e-06
-5.22366e-06
-5.73795e-06
-9.76089e-07
-4.48084e-06
-3.82967e-06
-3.44695e-06
-2.07768e-06
-1.09047e-06
-5.46279e-07
0
-1.48126e-06
-1.88756e-06
-2.43271e-06
-1.91259e-06
-2.60572e-06
-2.48071e-06
-9.21165e-07
-1.8493e-06
-1.00824e-06
-3.91884e-06
-1.07996e-06
-5.2574e-06
-1.01064e-06
-2.1059e-06
-7.91361e-07
-2.46395e-06
-5.41566e-07
0
-6.4783e-07
-5.41362e-06
0
-7.75048e-06
0
0
0
-4.07163e-06
-4.94264e-07
0
0
0
0
0
0
0
0
0
-2.73188e-06
-9.17606e-07
-4.22682e-06
-2.17132e-06
-3.17067e-06
-2.00889e-06
-5.44932e-06
-2.00631e-06
-3.70168e-06
-3.41345e-06
-2.31343e-06
-6.05381e-06
-2.14255e-08
-3.04314e-06
-2.46345e-06
-1.67892e-06
-1.7883e-06
-5.28393e-06
-2.23363e-06
0
-1.32931e-06
-4.47808e-07
-6.68943e-06
-1.26844e-06
-2.76541e-06
0
-3.2992e-07
-1.89779e-06
-9.45526e-07
-4.07658e-07
-1.76087e-06
-1.57393e-06
-3.31242e-06
-1.69539e-06
-1.10978e-06
-2.25198e-06
-9.46695e-07
-2.6973e-06
-1.41476e-06
-1.88172e-06
-4.0106e-07
-1.20739e-06
-4.38072e-07
-1.50711e-06
-1.05268e-07
0
0
0
0
0
-1.95602e-06
0
0
0
0
0
0
0
0
0
-2.34827e-06
-3.80399e-06
-1.61933e-06
-1.04106e-06
-1.53368e-06
-3.56748e-06
-4.1747e-06
-2.058e-06
-4.23673e-06
-1.58767e-06
-6.10033e-06
-4.53866e-06
-2.4633e-06
-6.12862e-07
-3.70577e-06
-2.35346e-06
-4.0294e-06
-5.79405e-08
-3.96391e-06
-8.49985e-07
-4.05733e-06
-4.36761e-06
-3.49386e-06
-2.78685e-07
-1.32431e-06
-1.40052e-06
0
-2.29558e-06
-6.1073e-07
-7.79076e-07
-2.13354e-06
-2.89245e-06
0
0
-1.64069e-06
-1.87534e-06
-3.44153e-06
-3.27671e-06
-8.74333e-08
-4.33511e-06
-2.47244e-06
0
0
-1.05721e-06
0
-7.03107e-07
-1.32853e-07
0
-4.91537e-07
0
0
0
0
0
0
0
0
0
0
0
-2.4239e-06
-1.7661e-06
-5.30325e-06
-5.79782e-06
-3.0815e-06
0
-3.5056e-06
-4.06786e-06
-4.00017e-06
-6.39049e-06
-9.44767e-07
-3.25555e-06
-1.24268e-06
-3.95739e-06
-2.89327e-06
-2.59749e-06
-2.29495e-06
-1.89378e-06
-2.84307e-06
-1.55828e-06
-8.77808e-07
-5.39096e-06
-2.39942e-06
-2.05207e-06
-5.97282e-07
-4.67152e-07
-1.20574e-06
-1.65883e-06
-3.93115e-06
-3.98289e-06
0
-2.61709e-06
-1.30897e-06
-3.51329e-06
-1.72442e-06
0
-4.16789e-06
-1.37445e-06
-1.26283e-06
-1.98404e-06
-2.03753e-06
-3.09537e-06
-8.87831e-07
-9.05023e-07
0
-1.68177e-06
-1.81093e-06
-2.53236e-07
-1.26852e-06
0
0
0
0
0
0
0
0
0
0
-3.45833e-06
-1.13737e-06
0
-2.54973e-06
-4.74301e-06
-4.22986e-06
-6.77444e-07
0
-7.43609e-06
-1.95907e-06
-3.34029e-06
-3.4265e-06
-6.20646e-06
-5.05008e-06
-1.62806e-06
-2.88453e-06
-2.05707e-07
-3.5286e-06
0
-2.00716e-06
-1.49198e-06
0
-2.86402e-06
-3.12468e-07
-9.52207e-07
-3.28532e-06
-1.73355e-06
-1.49965e-06
-2.20131e-06
0
-9.1417e-08
-2.83846e-06
-1.42914e-06
-1.97945e-06
-3.92308e-06
-2.34355e-06
-6.49317e-07
-5.01036e-06
-8.33182e-07
-3.47309e-06
-8.14134e-07
-3.21934e-06
-3.43472e-06
-1.67263e-06
-4.26494e-06
-3.04105e-06
-2.30906e-06
0
0
0
-1.9316e-06
0
0
0
0
0
0
0
0
0
-3.13417e-06
-3.84695e-06
-2.95778e-06
-7.66509e-06
-2.31079e-06
-3.64192e-06
-4.66181e-06
-7.22906e-06
-2.7075e-06
-2.99945e-06
-3.09416e-06
-3.30238e-06
-1.47141e-06
-4.74775e-06
-4.76584e-06
-3.41131e-06
0
-4.71038e-06
0
-2.92675e-06
-2.27864e-06
-2.01479e-06
-2.99481e-06
-2.61055e-06
0
-1.05375e-06
-3.56545e-07
-8.70811e-07
-9.35106e-07
-1.0041e-06
0
0
-6.93665e-06
-3.05019e-07
-2.48391e-06
-1.84166e-06
-3.89536e-06
-4.69927e-06
-1.23334e-06
0
-1.89322e-06
-2.70573e-06
-2.87654e-06
-2.09086e-06
-1.64272e-06
-1.71122e-07
-1.8527e-06
0
0
0
-1.35309e-06
0
0
0
0
0
0
0
0
0
-1.03808e-06
-1.18228e-06
-4.27552e-06
-1.70294e-06
-3.67779e-06
-3.43789e-06
-4.64211e-06
-4.39117e-06
-3.10532e-06
-3.83225e-06
-2.30663e-06
-7.67562e-06
-3.88899e-06
-1.6256e-06
0
-7.721e-06
-4.09109e-06
-2.68894e-06
-4.36894e-07
-8.43525e-07
-7.45093e-07
-2.72825e-06
-1.57449e-06
-1.63437e-06
-3.2796e-06
0
-8.66211e-07
-6.19456e-06
-1.89023e-06
-2.2412e-06
-3.43242e-06
-1.85101e-06
-1.12206e-06
-2.57467e-06
-3.42571e-06
-1.49119e-08
-4.33543e-06
-1.29744e-06
-9.30486e-07
0
-5.62408e-07
-6.77639e-07
-1.35072e-06
-2.03013e-06
-2.91213e-06
-1.91234e-06
-1.21026e-06
0
-1.67814e-06
0
-1.36574e-06
0
0
0
0
0
0
0
0
0
-2.06716e-06
-4.92753e-06
-2.19234e-06
-3.82191e-06
-5.78082e-06
-4.53035e-06
-1.3567e-06
-2.62023e-07
-1.44823e-06
-7.76362e-07
-3.69464e-06
-1.5179e-06
-9.20802e-07
-5.60206e-06
-2.6742e-06
-3.72627e-06
-2.0437e-06
-5.46146e-06
-3.46094e-06
-5.71374e-06
-1.33304e-06
0
-1.58668e-06
-6.13448e-06
-6.84716e-06
-1.68486e-06
-7.65371e-07
-2.82711e-06
-3.74381e-06
-2.50658e-06
-1.81447e-06
-3.46766e-06
-5.36858e-06
-4.43903e-06
-4.21765e-06
0
-1.47654e-06
-6.54504e-06
-8.55439e-07
-2.84455e-06
-1.75889e-06
-1.47847e-06
-4.80599e-06
-2.15732e-06
-3.94822e-06
-3.77813e-06
0
-1.87173e-06
0
0
0
0
0
0
0
0
0
0
0
0
-1.67882e-06
-5.4657e-06
-1.94869e-06
-4.37916e-06
-4.62398e-06
-4.06771e-06
-2.70528e-06
-2.78046e-06
-9.53255e-06
-1.51014e-06
-2.74844e-06
-6.5935e-06
-5.70708e-06
-8.36075e-06
-3.6776e-06
-2.258e-06
-1.78673e-06
-1.98937e-06
-1.80103e-06
-1.07109e-06
-2.562e-06
-1.24782e-06
-2.30215e-06
-3.10891e-06
-1.5404e-06
-9.12247e-07
-1.53639e-06
-1.69417e-06
-3.6913e-06
-1.14637e-06
-1.12304e-06
-1.98463e-06
-5.81079e-06
-5.03091e-06
-7.51163e-07
0
-3.56933e-06
-4.60694e-06
-2.20088e-06
-4.59471e-06
0
0
-4.87755e-06
0
-2.41839e-06
0
-2.04683e-06
0
-1.7971e-06
0
0
0
0
0
0
0
0
0
0
0
-7.67427e-07
-3.76901e-06
-1.2634e-06
-1.6451e-06
-7.28282e-07
-1.57955e-06
-2.07001e-06
-6.53484e-06
-3.62472e-06
-2.09137e-06
-3.62966e-06
-3.99767e-06
-3.63659e-06
-1.95084e-06
-4.70001e-06
-3.8961e-06
-2.08849e-06
-3.70801e-06
-8.13389e-07
-1.54459e-06
-2.03012e-06
-4.96695e-06
-2.10553e-06
-4.55443e-07
-7.3638e-06
0
-5.61692e-06
-1.54277e-06
-2.22849e-06
-1.4473e-06
-2.19033e-06
-6.99894e-06
-3.18746e-06
-1.8817e-06
-3.95789e-06
0
-2.7235e-06
-3.678e-06
-1.03851e-06
-7.39403e-06
-3.24545e-06
-1.97752e-06
-4.82937e-06
0
-1.56783e-06
-1.84109e-06
-1.85986e-06
-4.66091e-08
-1.33393e-06
-2.28093e-06
0
0
0
0
0
0
0
0
0
0
-5.05216e-07
-4.56283e-06
-5.42356e-06
-8.40578e-06
-2.7634e-06
-3.69302e-06
-2.52349e-06
-2.24801e-06
-3.28363e-06
-5.13192e-06
-8.30069e-06
-6.31016e-06
-5.36532e-06
-1.70574e-06
-5.72062e-07
-8.28713e-06
-4.56389e-06
-4.95049e-06
-5.3434e-06
-1.1673e-06
-6.17735e-07
-1.37172e-06
0
0
-1.43783e-06
-2.89936e-06
-2.00397e-06
-2.08367e-06
-3.1849e-06
-4.77371e-06
-4.14115e-06
-5.00154e-06
-5.88143e-06
-7.95001e-06
-4.06111e-07
-1.1252e-06
-3.06071e-06
-1.00706e-06
-2.52214e-06
-2.76868e-06
0
-1.51213e-06
-2.11544e-06
-1.24533e-06
-1.63672e-06
0
-2.59734e-06
-3.02102e-06
-5.20519e-07
0
0
0
0
0
0
0
0
0
0
0
-8.30091e-07
-2.24248e-06
-8.09217e-06
-4.42057e-06
-2.69561e-06
-4.57988e-06
-4.5082e-06
-4.59746e-06
-4.23016e-06
-5.45947e-06
-3.72791e-06
-6.60396e-06
-2.54032e-06
-1.07919e-05
-4.0149e-06
-3.39017e-06
-7.59255e-07
-6.07363e-06
-1.35408e-06
-4.52191e-06
-2.56887e-06
-6.89869e-07
-2.00055e-06
-2.28671e-06
-3.97064e-06
-2.55081e-06
-2.78992e-06
-2.22542e-06
-1.27819e-06
-4.41243e-06
-6.0554e-06
-4.6678e-06
-8.13554e-06
-4.25385e-06
-1.48375e-07
-4.0904e-07
-3.85037e-06
-1.59622e-06
-1.29705e-06
-5.74252e-06
-9.29113e-08
-5.90443e-06
-3.90554e-06
0
-1.51056e-06
-3.41991e-06
-1.64164e-06
-2.82416e-06
-2.33662e-06
0
0
0
0
0
0
0
0
0
0
0
-2.44697e-07
0
-6.71738e-06
-1.04956e-05
-4.01461e-06
-2.68535e-06
-1.05342e-05
-2.52373e-06
-3.37156e-06
-6.52856e-06
-2.39408e-06
-4.04218e-06
-3.02576e-06
-5.73903e-06
-3.53522e-06
0
-2.05564e-06
-1.03456e-06
-1.09522e-06
-2.76393e-06
-1.81038e-06
-1.23e-06
-2.71988e-06
-1.37853e-06
-3.33781e-06
-4.91802e-06
-4.89742e-06
-2.77738e-06
-3.92233e-06
-9.18913e-07
-4.63967e-06
-4.82333e-06
-2.71001e-06
-3.94835e-06
-9.00788e-07
-8.75391e-07
-1.624e-06
-3.77341e-06
-3.06268e-06
0
-4.1697e-06
-6.2135e-06
0
0
-3.52847e-06
-3.54391e-06
-1.74227e-06
-2.19721e-06
0
0
0
0
-2.05307e-06
0
0
0
0
0
0
0
-4.66866e-07
-4.57511e-06
-5.35183e-06
-7.10337e-06
-5.65274e-06
-3.63994e-06
-1.76575e-06
-1.37483e-06
-2.5361e-06
-6.91919e-06
-2.6551e-06
-4.28221e-06
-3.50058e-06
-3.19596e-06
-1.00406e-06
-6.03154e-06
-4.78952e-06
-2.07018e-06
-3.45398e-06
-1.86748e-06
-3.80687e-06
-4.63987e-06
-4.65565e-06
-5.5763e-06
-2.73456e-06
-3.71737e-06
-4.62255e-06
-3.49729e-06
-5.91616e-07
-1.85428e-06
-1.56692e-06
-3.24739e-06
-3.42312e-06
-1.86172e-06
-9.56364e-07
-1.36559e-06
-4.82249e-06
0
-4.31306e-06
-5.8054e-06
-2.4484e-06
-4.31606e-06
-2.27007e-06
-1.35395e-06
-7.33184e-06
-2.25749e-08
-3.88995e-06
-1.78563e-06
0
0
-4.07983e-06
0
0
0
0
0
0
0
0
0
-2.20904e-07
-3.77198e-06
-5.56494e-06
-2.61192e-06
-5.75232e-06
-2.40576e-06
-7.85002e-06
-8.82202e-06
-3.43842e-06
-8.22871e-06
-4.69202e-06
-7.67281e-06
-4.81894e-06
-6.66922e-06
-1.36505e-06
-4.68144e-06
-2.21018e-06
-2.30125e-06
-2.66968e-06
-1.43378e-06
-4.78785e-06
-6.95117e-06
-7.5655e-06
-1.81562e-06
-2.67332e-06
-6.7264e-07
-3.13487e-06
-2.03772e-06
-1.22886e-06
-2.16936e-06
-2.54805e-07
-6.73011e-06
-3.71801e-06
-5.84933e-06
-9.95727e-06
-6.60457e-06
-2.20017e-06
-4.39443e-06
-2.52878e-06
0
-2.46818e-06
-3.2273e-06
-2.19615e-06
-2.0552e-06
0
0
0
0
0
-5.17911e-06
-8.0229e-07
-1.88569e-06
0
0
0
0
0
0
0
0
-2.07922e-07
-8.67702e-06
-3.66453e-06
-4.24227e-06
-9.59379e-07
-6.48695e-06
-4.99511e-06
-9.52859e-06
-3.12817e-06
-5.99601e-06
-8.43133e-06
-3.51203e-06
-4.44299e-06
-4.91215e-06
-4.62844e-06
-3.98868e-06
-2.31844e-06
-3.1875e-06
-2.94793e-06
0
-1.92079e-06
-5.19655e-06
0
-1.15572e-06
-1.07352e-06
-2.43076e-06
-6.94663e-06
-2.68628e-06
-2.24192e-06
-1.24318e-06
-3.33252e-06
-6.5922e-07
-5.17692e-06
0
-8.34297e-06
-3.25836e-06
-1.40818e-06
-5.00346e-06
-4.61323e-06
-6.19458e-06
-4.30467e-06
-2.87572e-06
-1.21866e-06
-6.00461e-06
-1.64839e-06
-1.96274e-06
0
0
-2.74498e-06
-2.42182e-06
0
0
0
0
0
0
0
0
0
0
0
-1.56694e-06
-4.04516e-06
-6.12101e-06
-6.77189e-06
-3.95509e-06
-1.09148e-05
-3.91823e-06
-8.23927e-06
-4.23778e-06
-4.13763e-06
-4.46683e-06
-1.02377e-05
-7.98756e-06
-5.49617e-06
-3.15192e-06
-8.74517e-06
-6.93313e-06
-3.32848e-06
-3.13656e-06
-2.5421e-06
-2.03945e-06
-2.2276e-06
-3.37461e-06
-1.60858e-06
-4.27408e-06
-4.31621e-06
0
-7.63061e-06
-2.74092e-06
-4.08464e-06
0
-4.43396e-06
-1.2283e-06
-5.4623e-06
-4.47597e-06
0
0
-9.20862e-06
0
-6.49308e-06
-6.51653e-06
0
-3.9109e-06
-4.29815e-07
-1.61839e-06
0
0
0
0
0
0
0
0
0
0
0
0
0
0
-6.53943e-07
-3.2535e-06
-4.91184e-06
-9.34481e-06
-9.70348e-06
-6.65808e-06
-1.10395e-05
-7.64514e-06
-6.27923e-06
-7.01713e-06
-3.57079e-06
-6.45318e-06
-3.45901e-06
-7.92104e-06
-2.17462e-06
-6.20988e-06
-2.15913e-06
-2.41845e-06
-3.89597e-06
-2.53214e-06
-5.82711e-06
-6.61802e-06
-3.2729e-06
-5.05202e-07
-3.82892e-06
-3.98707e-06
-5.0394e-06
-4.71659e-06
-1.69319e-06
-2.14713e-06
-2.35946e-06
-2.2728e-06
-5.86215e-06
-3.40698e-06
-6.15103e-06
-2.48627e-06
-3.27457e-06
-3.69282e-06
-3.89199e-06
0
-7.94305e-06
-4.71385e-06
-1.27593e-06
-6.00544e-06
-1.01783e-06
-3.82315e-06
0
-2.32595e-06
0
0
0
0
0
0
0
0
0
0
0
0
-2.44184e-06
-3.1118e-06
-4.45514e-06
-3.1107e-06
-5.99611e-06
-4.23382e-06
-6.62297e-06
-4.9808e-06
-3.6496e-06
-4.66575e-06
-9.47069e-06
-1.12273e-06
-5.6773e-06
-1.84735e-06
-6.01223e-06
-3.56654e-07
-4.03484e-06
-5.39538e-06
-8.37803e-07
-2.67984e-06
-3.44664e-06
-2.63837e-06
-3.45857e-06
-1.5567e-06
-3.29294e-06
-3.40603e-06
-4.40075e-06
-3.01512e-06
-2.65377e-07
-1.68687e-06
-9.97727e-06
-1.80878e-06
-5.26284e-06
-7.66238e-07
-9.11386e-06
-3.77939e-06
-1.18605e-06
0
-2.8739e-06
-3.92541e-06
-4.38942e-06
-8.95901e-08
-1.34392e-06
0
-9.97272e-07
-4.2564e-07
-2.83814e-06
-2.60395e-06
0
0
0
0
0
0
0
0
0
0
0
0
0
-8.15298e-06
-9.04755e-06
-2.36809e-06
-3.01851e-06
-4.28852e-06
-5.44244e-06
-1.02787e-05
-8.4238e-06
-6.17344e-06
-1.16567e-05
-7.64854e-06
-8.42507e-06
-1.49992e-06
-7.26765e-06
-5.41903e-06
-3.52485e-06
-5.7301e-06
0
-9.8849e-06
-1.20012e-06
-3.52627e-06
-5.83429e-06
-4.75062e-06
-1.57863e-06
-8.61158e-07
-7.93118e-07
-4.95644e-06
-2.1191e-06
-2.34582e-06
-4.34254e-06
-3.60801e-06
-1.84074e-06
-1.12971e-06
-1.71395e-06
-4.74799e-06
-5.36359e-06
-6.92268e-06
-4.41302e-06
-5.5412e-06
-1.56933e-05
-1.67263e-06
0
-4.7272e-06
-6.47096e-06
-5.50034e-06
0
-7.93702e-07
-1.01254e-06
0
0
0
0
0
0
0
0
0
0
0
-1.63648e-07
-2.57093e-06
-3.79228e-06
-3.38595e-06
-7.69369e-06
-2.95626e-06
-5.73034e-06
-7.616e-06
-4.15405e-06
-8.55806e-06
-6.35968e-06
-4.55623e-06
-7.20687e-07
-3.8335e-06
-6.30946e-06
-4.31732e-06
-5.53467e-06
-7.52578e-06
-4.93351e-06
-7.15386e-06
-4.23122e-06
-3.09724e-06
-3.82774e-06
-1.54106e-06
-4.20284e-06
-4.32558e-06
-2.14031e-06
-4.36574e-06
-2.16934e-06
-2.38316e-06
-6.91226e-06
-5.34477e-06
-3.63602e-07
-3.30256e-06
-6.06684e-06
-5.74381e-06
-1.61818e-06
-5.07015e-06
-3.51442e-06
-1.17715e-05
-1.42323e-05
0
-2.9966e-06
-2.46059e-08
-1.28118e-06
-2.33324e-06
0
0
0
-2.56483e-06
0
0
0
0
0
0
0
0
0
0
0
-9.09518e-06
-4.57653e-06
-5.3584e-06
-7.01566e-06
-1.8643e-06
-5.13428e-06
-9.5531e-06
-3.23679e-06
-2.49999e-06
-3.55307e-06
-2.43029e-06
-8.59566e-06
-2.30688e-06
-9.41623e-06
-3.80063e-06
-2.78354e-06
-6.08452e-06
-2.58168e-06
-3.48358e-06
-3.01842e-06
-6.37213e-06
-7.4974e-06
-6.86616e-06
-3.43304e-06
-1.05896e-05
-5.75556e-06
-3.37303e-06
-5.72587e-06
-6.28383e-06
-7.0261e-06
-3.47321e-06
-4.45323e-06
-3.37015e-06
-2.78652e-06
-5.10156e-06
-2.44661e-06
-2.64128e-06
-2.45505e-06
-2.72408e-06
-4.42386e-06
0
-4.64631e-06
-1.69072e-06
-3.34323e-07
-6.10825e-06
0
0
0
0
0
0
0
0
0
0
0
0
0
0
0
-5.84625e-06
-6.11333e-06
-7.22668e-06
-1.71813e-06
-5.80923e-06
-9.49452e-06
-8.85933e-06
-6.00231e-06
-5.80782e-06
-6.57643e-06
-9.90349e-06
-1.09777e-06
-3.63253e-06
-3.34114e-06
-4.81022e-06
-3.91291e-06
-5.22882e-06
-3.22119e-06
-9.75497e-07
-3.40393e-06
-2.23976e-06
-5.56578e-06
-5.09643e-06
-2.78866e-06
-3.02391e-06
-4.22875e-06
-2.19538e-06
-4.5129e-06
-3.88199e-06
-6.93478e-06
-1.90404e-06
-4.20747e-06
-8.94783e-07
-6.91041e-06
-4.10448e-06
-1.624e-06
-4.54265e-06
-4.82092e-06
-4.91755e-06
-4.77678e-06
0
0
-4.97227e-08
-3.4515e-06
-3.99361e-06
0
0
0
0
0
0
0
0
0
0
0
0
0
0
0
-4.28459e-06
-4.40292e-06
-3.59999e-06
-5.00739e-06
-8.86684e-06
-7.16606e-06
-6.59977e-06
-7.94447e-06
-6.28037e-06
-1.91454e-06
-7.36684e-06
-8.6812e-06
-5.45403e-06
-5.31863e-06
-5.03599e-06
-2.77159e-06
-4.40745e-06
-3.25091e-06
-6.74846e-06
-2.98399e-06
-4.72292e-06
-3.99621e-06
-1.79013e-06
-9.44291e-06
-2.32249e-06
-4.43806e-06
-7.89268e-07
-5.12343e-06
-5.96591e-06
-6.22892e-06
-5.79565e-06
-1.48168e-06
-1.18039e-05
-2.66953e-06
-3.40773e-06
-3.41289e-06
-2.92012e-06
-1.73349e-06
-3.88243e-06
-5.69207e-06
-5.07803e-06
-5.21395e-06
-3.63694e-06
-2.62019e-06
0
0
0
0
0
0
0
0
0
0
0
0
0
0
0
0
-7.75626e-06
-8.12027e-06
-6.14039e-06
-3.08853e-06
-3.58781e-06
-5.37938e-06
-7.15576e-06
-1.21827e-05
-8.81408e-06
-4.89921e-06
-5.21347e-06
-4.13823e-06
-7.27187e-06
-8.93113e-06
-7.13405e-06
-7.40409e-06
-1.06322e-05
-1.33371e-06
-4.77681e-06
-1.48134e-06
-1.93042e-06
-3.77416e-06
-1.86496e-06
-8.86924e-06
-5.36467e-06
-4.11347e-06
-1.6577e-06
-3.73062e-06
-1.48146e-06
-3.77373e-06
-8.87426e-06
-2.09653e-06
-1.59584e-06
-4.76874e-06
-2.40342e-06
-1.02529e-06
-5.84442e-06
-1.77787e-06
-5.24337e-06
-1.06781e-05
-5.65179e-06
-1.82872e-06
-7.89675e-06
-3.00669e-06
0
0
0
-2.47233e-06
0
0
0
0
0
0
0
0
0
0
0
0
-3.38555e-06
-2.93973e-06
-5.26804e-06
-7.0349e-06
-4.70138e-06
-1.19079e-05
-6.94757e-06
-4.84323e-06
-6.29072e-06
-7.04529e-06
-1.43382e-05
-4.57675e-06
-1.92242e-06
-5.47782e-06
-2.549e-06
-4.42838e-06
-5.55082e-06
-3.57076e-06
-3.10155e-06
-7.79079e-06
-4.95347e-06
-1.29113e-06
-2.43951e-06
-4.28618e-06
-3.99476e-06
-6.60948e-06
-1.67879e-06
-6.97576e-06
-1.50149e-06
-6.34478e-06
-4.48395e-06
-1.23466e-05
-2.70791e-06
-4.58161e-06
-4.48315e-06
-1.03593e-05
-3.69786e-06
-1.67924e-06
0
-6.06746e-06
-3.75641e-06
-1.68592e-06
0
0
-1.7095e-06
0
0
0
0
0
0
0
0
0
0
0
0
0
0
0
-1.40141e-05
-5.21984e-06
-5.38898e-06
-7.62563e-06
-7.40182e-06
-1.04064e-05
-6.78524e-06
-8.94933e-06
-1.18882e-05
-5.22167e-06
-5.82311e-06
-7.87575e-06
-3.47667e-06
-6.4987e-06
-7.68854e-06
-2.81751e-06
-2.96795e-06
-1.15441e-05
-2.99351e-06
-5.87966e-06
-6.56126e-06
-1.53126e-06
-4.11938e-06
-2.80786e-06
-2.37233e-06
-2.23739e-06
-3.32425e-06
-5.11935e-06
-5.97394e-06
-3.78325e-06
-6.46404e-06
-5.08371e-06
-1.08565e-06
-9.81374e-06
-1.62986e-06
-2.80377e-06
-4.42219e-06
-8.55236e-06
-4.35434e-06
-1.73343e-06
-9.47943e-06
0
-2.70847e-06
-5.17403e-06
-9.94419e-06
-1.9955e-06
-2.94316e-06
0
0
0
0
0
0
0
0
0
0
0
0
0
-5.50784e-06
-3.18285e-06
-5.54743e-06
-1.35704e-05
-6.53165e-06
-8.19161e-06
-2.96188e-06
-1.00384e-05
-6.11976e-06
-5.4645e-06
-2.373e-06
-6.43227e-06
-9.5196e-06
-6.78539e-06
-1.68715e-06
-1.4992e-06
-6.02636e-06
-3.80101e-06
-4.47969e-06
-2.7319e-06
-6.99939e-06
-3.43223e-06
-4.10496e-06
-9.27297e-06
-2.98426e-06
-3.77137e-06
-4.26175e-06
-4.2938e-06
-2.34938e-06
-1.14625e-05
-8.69486e-06
-4.52902e-06
-5.03691e-06
-6.15175e-06
-3.16906e-06
-2.8977e-06
-5.15826e-06
-4.16692e-06
-1.24255e-06
-9.40706e-06
-1.31896e-06
-5.04975e-06
-4.36489e-06
-5.7578e-06
-2.33418e-06
-5.63288e-06
-3.43541e-06
0
0
0
0
0
0
0
0
0
0
0
0
0
-1.05792e-06
-7.3143e-06
-3.82737e-06
-6.30183e-06
-8.97488e-06
-1.81785e-06
-1.37516e-05
-4.56876e-06
-1.32605e-05
-1.06165e-05
-8.5036e-06
-7.57986e-06
-6.17244e-06
-6.05009e-06
-1.17974e-05
-7.2929e-06
-6.24978e-06
-3.43848e-06
-9.02093e-06
-2.88707e-06
-6.12371e-06
-4.72811e-06
-8.60027e-06
0
-2.84005e-06
-2.77362e-06
-5.38377e-06
-4.97078e-06
0
-9.33076e-06
-9.43602e-08
-2.79488e-06
-5.18665e-06
-8.19129e-06
-6.79687e-06
-4.59918e-06
-8.63997e-06
-3.9027e-06
-5.13561e-06
-3.4789e-06
-6.11183e-06
-4.20586e-06
-7.10548e-06
-1.95578e-06
-4.00504e-06
0
0
-2.08511e-06
0
0
0
0
0
0
0
0
0
0
0
0
-3.75786e-06
-2.69857e-06
-2.95867e-06
-1.36059e-05
-5.19398e-06
-3.40266e-06
-2.04305e-06
-7.58759e-06
-4.93407e-06
-9.14082e-06
-8.17439e-06
-7.18348e-06
-9.48812e-06
-8.16208e-06
-5.3546e-06
-1.57182e-06
-5.59226e-06
-4.68838e-06
-4.80746e-06
-3.84934e-06
-1.06153e-05
-9.91877e-06
-2.16709e-06
-1.76491e-06
-6.84632e-06
-2.38127e-06
-2.09463e-06
-5.50704e-06
-6.44182e-06
-2.22032e-06
-5.37654e-06
-5.14374e-06
-1.29122e-06
-5.87462e-06
-2.27907e-06
-3.76608e-06
-6.4916e-06
-5.56318e-06
-4.12065e-06
-2.71573e-06
-7.76126e-06
-2.03695e-06
-3.02123e-06
-6.65739e-06
-1.38119e-07
-2.09016e-06
-4.50913e-08
-1.92667e-06
0
0
0
0
0
0
0
0
0
0
0
0
-1.33322e-05
-5.20757e-06
-1.03869e-05
-2.64227e-06
-1.04207e-05
-5.31408e-06
-5.90502e-06
-1.20644e-05
-2.56303e-06
-8.58599e-06
-7.6203e-06
-8.17717e-06
-3.9627e-06
-6.581e-06
0
-5.53853e-06
-1.17569e-05
-5.39362e-06
-2.9305e-06
-1.43852e-05
-7.30825e-06
-6.80622e-06
-7.32075e-06
-2.51433e-06
-6.76913e-06
-3.12141e-06
-4.63817e-06
-3.80307e-06
-7.91807e-06
-7.3217e-06
-1.73148e-06
-5.07115e-06
-5.54961e-06
-6.12755e-06
-4.89767e-06
-2.77529e-06
-7.3603e-06
-4.3461e-06
-5.14773e-06
-4.00563e-06
-1.11576e-05
0
0
-3.11229e-06
-3.79433e-06
-1.84695e-06
-2.84207e-06
-1.88377e-06
0
0
0
0
0
0
0
0
0
0
0
0
-6.24336e-06
-8.44448e-06
-5.21707e-06
-7.94523e-06
-2.93788e-06
-7.4038e-06
-4.96278e-06
-1.15284e-05
-1.95751e-06
-1.20384e-05
-6.50959e-06
-5.39948e-06
-9.3715e-07
-7.31992e-06
-5.08454e-06
-4.4256e-06
-9.2499e-06
-2.9836e-06
-3.9987e-06
-6.14239e-06
-5.94858e-06
-5.66073e-06
-1.43098e-05
-5.41889e-06
-6.71885e-06
-6.14243e-06
-5.46568e-06
-1.10065e-06
-2.31623e-06
-3.83025e-06
-1.61112e-06
-6.71064e-06
-4.80061e-06
-2.61328e-06
-4.00869e-06
-4.37357e-06
-8.07025e-06
-3.35005e-06
-5.32925e-06
0