/*--------------------------------*- C++ -*----------------------------------*\
| =========                 |                                                 |
| \\      /  F ield         | OpenFOAM: The Open Source CFD Toolbox           |
|  \\    /   O peration     | Version:  v1906                                 |
|   \\  /    A nd           | Web:      www.OpenFOAM.com                      |
|    \\/     M anipulation  |                                                 |
\*---------------------------------------------------------------------------*/
FoamFile
{
    version     2.0;
    format      ascii;
    class       volScalarField;
    location    "2.83";
    object      EDC<psiReactionThermo>:kappa;
}
// * * * * * * * * * * * * * * * * * * * * * * * * * * * * * * * * * * * * * //

dimensions      [0 0 0 0 0 0 0];


internalField   nonuniform List<scalar> 
26400
(
0.0824691
0.082501
0.0825651
0.0826615
0.0827904
0.0829523
0.0831476
0.0833767
0.0836403
0.0839391
0.0842742
0.0846465
0.0850572
0.0855076
0.0859991
0.0865335
0.0871127
0.0877387
0.0884142
0.0891419
0.0899251
0.0907668
0.0916709
0.092642
0.0936852
0.0948057
0.0960101
0.0973058
0.0987008
0.100205
0.101828
0.103584
0.10549
0.107562
0.109821
0.112291
0.115003
0.117993
0.121304
0.124988
0.129112
0.133758
0.139031
0.14506
0.152017
0.160121
0.169662
0.181024
0.194717
0.211422
0.232051
0.257752
0.290028
0.330578
0.381376
0.44542
0.532138
0.671192
0.998797
1
0.0821218
0.0821534
0.0822166
0.0823118
0.0824391
0.0825986
0.0827909
0.0830168
0.0832765
0.0835708
0.0839007
0.0842672
0.0846713
0.0851144
0.0855977
0.086123
0.086692
0.0873069
0.08797
0.0886841
0.089452
0.0902771
0.0911629
0.092114
0.093135
0.0942313
0.095409
0.0966753
0.098038
0.0995061
0.10109
0.102802
0.104658
0.106675
0.108873
0.111275
0.113912
0.116815
0.120028
0.123601
0.127599
0.132099
0.137201
0.143033
0.149759
0.157595
0.166827
0.177841
0.191156
0.207477
0.227744
0.253287
0.285775
0.327262
0.380028
0.446637
0.535383
0.674201
0.995654
1
0.0818751
0.0819063
0.0819689
0.082063
0.0821892
0.0823473
0.0825381
0.0827619
0.0830193
0.0833111
0.0836382
0.0840014
0.0844018
0.0848406
0.0853193
0.0858401
0.0864042
0.0870138
0.0876712
0.0883789
0.08914
0.0899577
0.0908358
0.0917783
0.0927901
0.0938766
0.0950438
0.0962985
0.0976487
0.0991038
0.100673
0.10237
0.104209
0.106206
0.108382
0.110759
0.113365
0.116235
0.119409
0.122938
0.126882
0.13132
0.13635
0.142096
0.148722
0.156441
0.165539
0.176401
0.18955
0.205708
0.225866
0.251397
0.284071
0.326031
0.37964
0.447604
0.538002
0.676392
0.995907
1
0.0816107
0.0816417
0.0817036
0.0817967
0.0819212
0.0820775
0.082266
0.0824872
0.0827419
0.0830303
0.0833534
0.0837123
0.0841077
0.0845413
0.0850141
0.0855278
0.0860843
0.0866854
0.0873336
0.0880312
0.0887811
0.0895863
0.0904509
0.0913786
0.0923742
0.0934428
0.0945904
0.0958238
0.0971505
0.0985794
0.10012
0.101785
0.103588
0.105547
0.107679
0.110007
0.11256
0.115367
0.118468
0.121912
0.12576
0.130085
0.134982
0.140573
0.147013
0.15451
0.163342
0.173887
0.186668
0.202417
0.22216
0.247368
0.28002
0.322612
0.377891
0.448494
0.541305
0.683236
0.996417
1
0.0813514
0.0813821
0.0814434
0.0815357
0.081659
0.0818137
0.0820003
0.082219
0.0824708
0.082756
0.0830755
0.0834303
0.0838212
0.0842494
0.0847165
0.085224
0.0857737
0.0863674
0.087007
0.0876957
0.0884357
0.0892304
0.0900833
0.0909985
0.0919806
0.0930347
0.0941669
0.0953835
0.096692
0.098101
0.0996199
0.101261
0.103039
0.104969
0.10707
0.109364
0.111878
0.114643
0.117697
0.121091
0.124881
0.12914
0.13396
0.139459
0.145793
0.153162
0.161841
0.172203
0.184766
0.200259
0.219748
0.244731
0.277313
0.320262
0.376783
0.450091
0.546546
0.688744
0.999184
1
0.0810955
0.0811258
0.0811867
0.0812779
0.0813999
0.0815527
0.081737
0.0819532
0.0822022
0.0824841
0.0827997
0.08315
0.0835359
0.0839586
0.0844197
0.0849204
0.0854624
0.0860476
0.0866781
0.0873565
0.0880856
0.0888686
0.0897089
0.0906104
0.0915774
0.0926151
0.0937289
0.0949256
0.0962123
0.0975976
0.0990908
0.100704
0.10245
0.104346
0.106409
0.10866
0.111126
0.113838
0.116831
0.12015
0.123853
0.128011
0.132713
0.138074
0.144239
0.151405
0.159837
0.169896
0.182093
0.197158
0.216177
0.240683
0.272967
0.316149
0.373919
0.450674
0.551672
0.69685
1
1
0.080843
0.0808731
0.0809332
0.0810234
0.0811438
0.0812949
0.081477
0.0816906
0.081936
0.082214
0.0825251
0.0828704
0.0832511
0.0836682
0.0841228
0.0846164
0.0851508
0.0857277
0.0863491
0.0870175
0.0877357
0.0885067
0.0893343
0.0902218
0.0911735
0.0921947
0.0932911
0.0944689
0.0957351
0.0970981
0.0985668
0.100153
0.101871
0.103734
0.105762
0.107975
0.110399
0.113063
0.116005
0.119267
0.12291
0.127
0.131622
0.136889
0.142943
0.149976
0.158243
0.168097
0.180033
0.194782
0.213402
0.237526
0.269504
0.312806
0.371904
0.452349
0.559645
0.710762
1
1
0.0805947
0.0806242
0.0806837
0.0807732
0.0808924
0.0810416
0.0812212
0.0814319
0.0816739
0.0819479
0.0822547
0.082595
0.0829698
0.0833801
0.0838277
0.0843137
0.0848396
0.0854075
0.0860192
0.086677
0.0873836
0.0881422
0.0889559
0.0898284
0.0907641
0.0917679
0.0928451
0.0940027
0.095247
0.0965859
0.0980284
0.099586
0.101272
0.103101
0.105091
0.107262
0.109639
0.112251
0.115134
0.118332
0.121897
0.125896
0.130413
0.135557
0.141467
0.148326
0.156384
0.165982
0.177603
0.191968
0.210134
0.233718
0.265162
0.308301
0.368472
0.452731
0.567613
0.727363
1
1
0.0803532
0.0803823
0.0804407
0.0805286
0.080646
0.0807931
0.0809702
0.0811775
0.0814157
0.0816851
0.0819868
0.0823214
0.08269
0.0830934
0.0835335
0.0840111
0.0845281
0.0850863
0.0856876
0.086334
0.0870284
0.0877735
0.0885727
0.0894296
0.090349
0.0913351
0.0923932
0.0935293
0.0947508
0.0960653
0.0974813
0.0990103
0.100665
0.10246
0.104413
0.106542
0.108874
0.111436
0.114263
0.117399
0.120896
0.124821
0.129254
0.134302
0.140099
0.146827
0.154726
0.164129
0.175507
0.189561
0.207325
0.230406
0.261387
0.304306
0.365399
0.453787
0.578739
0.75373
1
1
0.0801165
0.0801452
0.0802028
0.0802894
0.0804049
0.0805496
0.0807239
0.0809281
0.0811627
0.0814279
0.0817243
0.0820527
0.0824142
0.0828099
0.0832412
0.0837099
0.084217
0.0847643
0.0853539
0.0859879
0.0866688
0.0873995
0.0881831
0.0890236
0.089925
0.0908918
0.0919291
0.0930429
0.0942403
0.0955288
0.0969168
0.0984149
0.100036
0.101794
0.103706
0.105791
0.108073
0.110581
0.113348
0.116415
0.119835
0.123671
0.128004
0.132935
0.138598
0.145169
0.152882
0.162062
0.17318
0.18691
0.204274
0.226872
0.257338
0.299857
0.361566
0.4539
0.590248
0.784706
1
1
0.0798927
0.0799206
0.0799764
0.0800602
0.0801723
0.0803133
0.0804833
0.0806828
0.0809124
0.0811725
0.0814633
0.0817859
0.0821407
0.0825287
0.0829515
0.0834101
0.0839062
0.0844413
0.0850177
0.0856376
0.0863037
0.0870187
0.0877855
0.088608
0.0894901
0.0904362
0.0914513
0.0925414
0.0937131
0.0949738
0.0963319
0.0977977
0.0993837
0.101103
0.102973
0.105012
0.107243
0.109694
0.112398
0.115398
0.118742
0.122493
0.126731
0.131556
0.137097
0.143527
0.151078
0.160069
0.17096
0.184415
0.20144
0.223619
0.253554
0.295721
0.358198
0.454813
0.605886
0.83305
1
1
0.0796902
0.0797174
0.0797718
0.0798537
0.0799628
0.0800995
0.0802638
0.0804563
0.0806774
0.0809285
0.0812099
0.0815226
0.0818674
0.0822456
0.0826579
0.0831057
0.0835903
0.0841132
0.0846764
0.0852819
0.0859323
0.0866301
0.0873787
0.0881816
0.0890425
0.0899656
0.0909562
0.0920201
0.0931634
0.0943941
0.0957197
0.0971501
0.098698
0.100376
0.102201
0.104191
0.106366
0.108755
0.11139
0.114313
0.11757
0.121225
0.125353
0.130052
0.135451
0.141717
0.149079
0.15785
0.168486
0.181642
0.198319
0.220102
0.249636
0.291705
0.354843
0.455546
0.622666
0.893225
1
1
0.079506
0.0795321
0.0795842
0.0796625
0.0797676
0.0798995
0.0800589
0.0802458
0.0804608
0.0807044
0.0809773
0.0812804
0.081614
0.0819792
0.0823773
0.0828091
0.0832767
0.0837821
0.0843275
0.0849152
0.0855471
0.0862256
0.0869537
0.087735
0.0885729
0.0894719
0.0904367
0.0914729
0.0925868
0.0937857
0.0950768
0.0964697
0.0979764
0.0996102
0.101386
0.103321
0.105436
0.107759
0.110322
0.113165
0.116333
0.119886
0.123899
0.128467
0.133716
0.139811
0.146975
0.155518
0.165888
0.178734
0.195047
0.216406
0.245468
0.287
0.351076
0.456568
0.643258
0.980045
1
1
0.0793616
0.0793869
0.0794373
0.0795132
0.0796144
0.0797416
0.0798949
0.0800745
0.0802807
0.0805142
0.0807757
0.0810659
0.0813858
0.0817367
0.0821199
0.0825364
0.0829875
0.0834747
0.0839998
0.0845655
0.0851742
0.0858284
0.08653
0.0872827
0.0880905
0.0889581
0.0898908
0.090894
0.0919735
0.0931359
0.0943881
0.0957396
0.0972017
0.0987871
0.10051
0.102388
0.10444
0.106695
0.109181
0.111934
0.115002
0.118439
0.12232
0.126738
0.131813
0.137707
0.144638
0.152911
0.162967
0.175454
0.19136
0.212277
0.240901
0.282318
0.346692
0.457308
0.665934
1
1
1
0.0792044
0.0792293
0.0792792
0.0793542
0.0794543
0.0795797
0.0797309
0.0799082
0.0801117
0.0803419
0.0805991
0.0808837
0.0811956
0.0815349
0.0819035
0.0823026
0.0827343
0.0832003
0.0837023
0.0842425
0.0848242
0.0854503
0.0861243
0.0868482
0.0876259
0.0884614
0.0893591
0.0903247
0.0913643
0.0924845
0.0936909
0.0949934
0.0964035
0.0979331
0.0995963
0.101409
0.10339
0.105565
0.107962
0.110616
0.113571
0.116883
0.12062
0.12487
0.129751
0.135418
0.142081
0.150035
0.159712
0.171747
0.187119
0.207419
0.235387
0.276282
0.340849
0.454975
0.687469
1
1
1
0.0791122
0.0791353
0.0791815
0.0792508
0.0793435
0.0794596
0.0795999
0.0797649
0.0799548
0.0801708
0.0804131
0.0806831
0.0809821
0.0813109
0.08167
0.0820602
0.0824824
0.0829382
0.0834284
0.083954
0.0845161
0.0851166
0.0857597
0.0864492
0.0871886
0.087982
0.088834
0.0897504
0.0907376
0.0918037
0.0929554
0.0942008
0.0955501
0.0970151
0.098609
0.100348
0.10225
0.104336
0.106633
0.109175
0.112004
0.115171
0.11874
0.122796
0.127448
0.132842
0.139178
0.146737
0.155929
0.167365
0.181993
0.201372
0.228213
0.267781
0.33141
0.446912
0.697781
1
1
1
0.079104
0.0791256
0.0791689
0.0792338
0.0793209
0.0794302
0.0795618
0.0797162
0.079894
0.0800957
0.0803218
0.0805732
0.0808509
0.0811554
0.0814882
0.0818502
0.0822432
0.0826688
0.0831291
0.0836265
0.0841636
0.0847429
0.0853665
0.0860369
0.0867567
0.0875289
0.0883569
0.089244
0.0901932
0.0912095
0.0923017
0.0934798
0.0947536
0.0961342
0.0976339
0.0992682
0.101058
0.10303
0.105205
0.107615
0.110296
0.113295
0.116673
0.120505
0.124894
0.129971
0.135923
0.143005
0.151596
0.162263
0.17589
0.193949
0.219056
0.256451
0.317396
0.429658
0.68463
1
1
1
0.0791933
0.0792134
0.0792539
0.0793146
0.0793959
0.0794979
0.079621
0.0797655
0.079932
0.0801209
0.0803328
0.0805683
0.0808279
0.0811129
0.0814241
0.0817626
0.0821294
0.0825257
0.0829533
0.083414
0.08391
0.0844436
0.0850173
0.0856342
0.0862976
0.0870119
0.0877816
0.088612
0.0895093
0.0904795
0.0915284
0.0926635
0.0938924
0.0952239
0.0966676
0.0982338
0.0999328
0.101787
0.103823
0.106073
0.108572
0.111363
0.114502
0.118058
0.122126
0.126829
0.132339
0.138893
0.146839
0.156704
0.169309
0.185999
0.20916
0.243468
0.299215
0.404328
0.652524
1
1
1
0.0794198
0.0794387
0.0794763
0.079533
0.0796087
0.0797036
0.0798182
0.0799529
0.0801078
0.0802836
0.0804809
0.0807002
0.0809424
0.0812081
0.0814981
0.0818137
0.082156
0.0825258
0.082925
0.0833551
0.0838174
0.084314
0.0848472
0.0854198
0.0860343
0.0866939
0.0874019
0.0881624
0.0889802
0.0898604
0.0908091
0.091835
0.0929472
0.0941563
0.0954745
0.0969154
0.0984973
0.10024
0.102163
0.104292
0.10666
0.109305
0.112278
0.115641
0.119478
0.1239
0.129057
0.13516
0.14252
0.151612
0.163187
0.178492
0.199753
0.231499
0.283896
0.384305
0.62451
1
1
1
0.0798262
0.0798437
0.0798789
0.0799319
0.0800027
0.0800917
0.0801991
0.0803252
0.0804704
0.0806353
0.0808202
0.0810259
0.0812531
0.0815022
0.0817742
0.0820702
0.082391
0.0827379
0.0831119
0.0835147
0.0839477
0.084413
0.0849127
0.0854491
0.0860243
0.0866413
0.0873033
0.0880137
0.0887763
0.0895956
0.0904762
0.091425
0.0924486
0.0935542
0.0947509
0.0960496
0.0974609
0.0990019
0.100691
0.102551
0.10461
0.106902
0.109472
0.112377
0.115693
0.11952
0.123996
0.129301
0.135702
0.143602
0.15365
0.166916
0.185274
0.212433
0.258251
0.348696
0.561553
1
1
1
0.0804796
0.0804964
0.0805296
0.0805798
0.0806471
0.0807314
0.0808329
0.0809522
0.0810895
0.0812453
0.0814204
0.081615
0.0818297
0.0820653
0.0823226
0.0826026
0.0829058
0.0832337
0.083587
0.0839673
0.084376
0.0848151
0.0852866
0.0857927
0.0863356
0.086918
0.0875429
0.0882135
0.0889337
0.089708
0.0905404
0.0914373
0.0924044
0.0934488
0.0945802
0.0958067
0.0971381
0.0985866
0.100167
0.101896
0.103791
0.105877
0.10818
0.110737
0.113595
0.116831
0.120571
0.124848
0.129712
0.135248
0.141595
0.149032
0.158212
0.170678
0.188211
0.214695
0.267979
0.319673
0.709183
1
0.0813662
0.0813846
0.0814215
0.0814773
0.081552
0.0816463
0.0817598
0.0818928
0.0820468
0.0822216
0.0824181
0.0826369
0.0828791
0.0831456
0.0834372
0.0837553
0.0841011
0.0844759
0.0848812
0.0853194
0.0857928
0.0863039
0.0868558
0.0874518
0.0880958
0.0887922
0.0895459
0.0903618
0.0912473
0.09221
0.0932579
0.0944023
0.0956559
0.0970328
0.0985501
0.100228
0.10209
0.104167
0.106495
0.109116
0.112083
0.115455
0.119306
0.123715
0.12876
0.1345
0.140919
0.14826
0.156857
0.167163
0.179836
0.195942
0.217154
0.246379
0.289342
0.356949
0.490458
0.831883
1
1
0.0825349
0.0825547
0.0825942
0.0826539
0.0827335
0.0828334
0.0829541
0.0830963
0.08326
0.0834462
0.0836554
0.0838885
0.0841466
0.0844307
0.084742
0.0850818
0.0854506
0.0858506
0.0862836
0.0867519
0.0872582
0.0878051
0.0883959
0.0890345
0.0897248
0.0904711
0.0912787
0.0921534
0.0931019
0.0941316
0.0952506
0.0964704
0.0978036
0.0992634
0.100866
0.10263
0.104579
0.10674
0.109145
0.111832
0.114849
0.118255
0.122123
0.126548
0.131654
0.137605
0.144619
0.152972
0.162946
0.174933
0.189543
0.207702
0.230781
0.261087
0.303135
0.369813
0.49807
0.814686
1
1
0.0840337
0.0840554
0.0840993
0.0841653
0.084254
0.0843654
0.0845004
0.0846591
0.0848422
0.0850502
0.085284
0.0855452
0.0858347
0.0861533
0.0865025
0.0868834
0.087298
0.0877483
0.0882367
0.0887661
0.0893395
0.0899606
0.0906333
0.091362
0.0921518
0.0930082
0.0939377
0.0949483
0.0960481
0.0972467
0.098555
0.0999876
0.101561
0.103292
0.105203
0.10732
0.109672
0.112296
0.115234
0.118534
0.122257
0.126471
0.131257
0.136709
0.142933
0.150046
0.158174
0.167454
0.178183
0.190723
0.205468
0.222918
0.24451
0.27299
0.314208
0.380695
0.507603
0.811457
1
1
0.0857511
0.0857752
0.085823
0.0858951
0.0859919
0.0861137
0.0862606
0.0864331
0.0866321
0.0868582
0.0871126
0.0873961
0.0877099
0.0880557
0.0884333
0.0888452
0.0892929
0.0897792
0.0903064
0.0908775
0.0914955
0.092164
0.0928869
0.0936695
0.0945168
0.0954342
0.096428
0.0975058
0.0986762
0.0999485
0.101333
0.102844
0.104498
0.106311
0.108304
0.1105
0.112927
0.115619
0.118613
0.121956
0.125701
0.129912
0.134667
0.140057
0.146193
0.153209
0.161264
0.170562
0.18135
0.193966
0.208918
0.22693
0.249184
0.277791
0.317068
0.378247
0.49295
0.771275
1
1
0.0877106
0.087737
0.0877896
0.0878686
0.0879745
0.0881076
0.0882681
0.0884568
0.0886748
0.0889222
0.0892002
0.0895105
0.0898541
0.0902313
0.0906435
0.0910925
0.0915807
0.0921103
0.0926842
0.0933058
0.0939785
0.0947062
0.0954932
0.0963447
0.0972664
0.0982642
0.0993456
0.100519
0.101793
0.103179
0.104687
0.106336
0.108142
0.110124
0.112306
0.114714
0.11738
0.120343
0.123644
0.127336
0.131476
0.136135
0.141394
0.147342
0.154086
0.161739
0.170429
0.1803
0.191515
0.204268
0.218796
0.235602
0.255979
0.282327
0.319481
0.377839
0.484429
0.73112
1
1
0.0898164
0.089845
0.089902
0.0899875
0.0901016
0.0902447
0.0904175
0.090621
0.0908555
0.0911217
0.091421
0.0917546
0.092122
0.0925245
0.0929643
0.0934433
0.0939632
0.0945271
0.0951371
0.0957964
0.0965088
0.0972785
0.0981094
0.0990061
0.099975
0.101021
0.102153
0.103376
0.104703
0.106141
0.107703
0.109405
0.111263
0.113297
0.115527
0.117978
0.120683
0.123674
0.126992
0.130686
0.13481
0.139428
0.144614
0.150454
0.157046
0.164504
0.172963
0.182586
0.193574
0.206206
0.220876
0.238104
0.258738
0.284371
0.318731
0.371412
0.469707
0.698813
1
1
0.0920334
0.0920635
0.0921242
0.0922162
0.0923388
0.0924927
0.0926785
0.0928964
0.0931464
0.0934299
0.0937478
0.0941014
0.0944916
0.0949195
0.0953862
0.0958945
0.0964456
0.0970418
0.0976856
0.0983816
0.099133
0.0999437
0.100818
0.10176
0.102776
0.103872
0.105054
0.106333
0.107716
0.109217
0.110846
0.112622
0.114562
0.116685
0.119015
0.121577
0.124405
0.127536
0.131013
0.134889
0.13922
0.144077
0.149536
0.155686
0.162626
0.170461
0.179308
0.189286
0.200505
0.213046
0.227153
0.243231
0.262266
0.286211
0.31859
0.367688
0.454915
0.65103
1
1
0.0943023
0.0943343
0.0943988
0.0944957
0.094625
0.0947872
0.0949828
0.0952122
0.0954758
0.0957747
0.0961101
0.0964823
0.0968922
0.0973417
0.0978316
0.0983635
0.0989388
0.0995603
0.100232
0.100957
0.101739
0.10258
0.103485
0.104459
0.105507
0.106635
0.10785
0.109161
0.110578
0.112111
0.113775
0.115584
0.117556
0.119709
0.122066
0.124651
0.127496
0.130638
0.134119
0.13799
0.142303
0.147125
0.152528
0.158592
0.165418
0.173113
0.181798
0.191614
0.202716
0.21529
0.229715
0.246336
0.265617
0.288666
0.318743
0.3633
0.443233
0.627584
1
1
0.0965677
0.0966009
0.0966684
0.0967707
0.0969071
0.0970776
0.0972837
0.0975247
0.0978014
0.0981151
0.0984657
0.0988547
0.0992825
0.0997515
0.100262
0.100815
0.101412
0.102057
0.102753
0.103503
0.10431
0.105177
0.106108
0.107109
0.108184
0.10934
0.110584
0.111924
0.113371
0.114936
0.116632
0.118474
0.120482
0.122674
0.125073
0.127707
0.130605
0.133808
0.137362
0.141317
0.145734
0.150683
0.156234
0.162477
0.169513
0.177448
0.186386
0.196429
0.207662
0.220171
0.234173
0.249879
0.268056
0.290181
0.31889
0.360722
0.432825
0.591809
1
1
0.098791
0.0988262
0.0988971
0.0990043
0.099147
0.0993259
0.0995413
0.0997931
0.100082
0.100409
0.100775
0.10118
0.101626
0.102112
0.102641
0.103213
0.103831
0.104497
0.105215
0.105986
0.106815
0.107704
0.108658
0.109682
0.110779
0.111956
0.11322
0.114581
0.116047
0.11763
0.119343
0.121202
0.123224
0.125431
0.127843
0.130487
0.133396
0.136607
0.140165
0.144121
0.148532
0.153466
0.158994
0.165202
0.172194
0.180071
0.188952
0.198955
0.210192
0.222915
0.237297
0.253611
0.272116
0.293586
0.320608
0.358747
0.424352
0.572715
1
1
0.10093
0.100967
0.101041
0.101152
0.1013
0.101486
0.10171
0.101972
0.102273
0.102613
0.102993
0.103414
0.103875
0.10438
0.104926
0.105517
0.106155
0.106842
0.10758
0.108371
0.10922
0.110131
0.111106
0.11215
0.113268
0.114464
0.115747
0.117126
0.11861
0.120211
0.121941
0.123817
0.125857
0.128081
0.130515
0.133183
0.13612
0.139365
0.142963
0.14697
0.151445
0.156458
0.162087
0.168425
0.17557
0.183629
0.192708
0.202904
0.2143
0.227031
0.241197
0.256932
0.274708
0.295516
0.321591
0.35757
0.416738
0.545271
0.974377
1
0.102954
0.102993
0.103071
0.103186
0.10334
0.103533
0.103765
0.104038
0.104351
0.104704
0.105098
0.105534
0.106012
0.106533
0.107098
0.107708
0.108366
0.109074
0.109834
0.110647
0.111518
0.11245
0.113446
0.11451
0.115647
0.116863
0.118165
0.119563
0.121066
0.122685
0.124433
0.126326
0.128385
0.130625
0.133076
0.135762
0.138717
0.141981
0.145601
0.149629
0.154128
0.159165
0.164817
0.171182
0.178358
0.186457
0.195594
0.205899
0.217451
0.230488
0.245161
0.261654
0.280075
0.300872
0.325442
0.358565
0.412833
0.530536
0.920615
1
0.10484
0.104879
0.104959
0.105078
0.105238
0.105439
0.105681
0.105964
0.106289
0.106655
0.107064
0.107514
0.108008
0.108547
0.109131
0.109761
0.110439
0.111167
0.111949
0.112784
0.113678
0.114632
0.115651
0.116738
0.117897
0.119135
0.12046
0.121878
0.123404
0.125045
0.126815
0.128731
0.130813
0.133079
0.135554
0.138269
0.141256
0.144558
0.148224
0.152306
0.156874
0.161997
0.167756
0.174253
0.181592
0.189885
0.199262
0.209788
0.221562
0.234755
0.249408
0.265606
0.283616
0.304095
0.328337
0.360196
0.409717
0.510881
0.848869
1
0.106568
0.106609
0.106691
0.106815
0.106981
0.10719
0.107441
0.107735
0.108073
0.108453
0.108876
0.109343
0.109854
0.110412
0.111015
0.111666
0.112366
0.113117
0.11392
0.11478
0.115698
0.116678
0.117723
0.118836
0.120023
0.121288
0.12264
0.124088
0.125641
0.127312
0.129112
0.131059
0.133172
0.135473
0.137984
0.140738
0.143769
0.147121
0.150843
0.154988
0.159627
0.16483
0.170682
0.177288
0.184753
0.193214
0.202758
0.213494
0.225653
0.239373
0.254812
0.272116
0.291303
0.312408
0.336154
0.365718
0.410582
0.501608
0.803282
1
0.108128
0.10817
0.108257
0.108386
0.108559
0.108774
0.109035
0.10934
0.109688
0.110082
0.110521
0.111005
0.111535
0.112111
0.112736
0.113409
0.114132
0.114908
0.115737
0.116622
0.117568
0.118576
0.119651
0.120794
0.122012
0.123309
0.124694
0.126176
0.127765
0.129471
0.131311
0.1333
0.135459
0.137804
0.140366
0.143176
0.146272
0.149697
0.153505
0.157752
0.16251
0.167854
0.173877
0.180684
0.188409
0.197154
0.207026
0.218138
0.230688
0.244725
0.260281
0.277575
0.296787
0.318088
0.342497
0.372358
0.414959
0.494504
0.754986
1
0.109515
0.10956
0.109651
0.109785
0.109964
0.110188
0.110457
0.110772
0.111133
0.11154
0.111996
0.112497
0.113046
0.113643
0.114289
0.114987
0.115735
0.116538
0.117393
0.118309
0.119285
0.120324
0.121433
0.122613
0.123868
0.125203
0.126629
0.128154
0.129789
0.131545
0.133437
0.135483
0.137701
0.140111
0.142742
0.14563
0.148816
0.152344
0.156268
0.16065
0.165566
0.171093
0.177325
0.184382
0.192405
0.201489
0.211776
0.223402
0.236644
0.2517
0.268661
0.287547
0.308157
0.331059
0.356917
0.387151
0.427444
0.498723
0.724778
1
0.110732
0.110778
0.110871
0.11101
0.111196
0.111428
0.111706
0.112034
0.112408
0.11283
0.1133
0.11382
0.114388
0.115006
0.115675
0.116397
0.117172
0.118002
0.118888
0.119835
0.120845
0.121921
0.123067
0.124286
0.125583
0.126964
0.128437
0.130014
0.131704
0.13352
0.135477
0.137595
0.139885
0.142376
0.145101
0.148095
0.151401
0.155066
0.159148
0.163718
0.168857
0.174643
0.181185
0.188615
0.197074
0.206663
0.217534
0.229814
0.243732
0.2594
0.276964
0.29625
0.318013
0.342768
0.370983
0.403527
0.443996
0.507087
0.698437
1
0.11178
0.111828
0.111925
0.112069
0.112261
0.112502
0.11279
0.113129
0.113517
0.113954
0.114441
0.114977
0.115565
0.116204
0.116898
0.117646
0.118449
0.11931
0.120229
0.121208
0.122252
0.123365
0.124551
0.125815
0.12716
0.128591
0.130121
0.131758
0.133514
0.135403
0.137441
0.139645
0.142033
0.144634
0.147482
0.150617
0.154085
0.157938
0.16224
0.167064
0.172498
0.178638
0.185594
0.193506
0.202551
0.212837
0.224502
0.237823
0.252994
0.270309
0.289528
0.311076
0.33551
0.363955
0.397247
0.436766
0.485465
0.550407
0.714967
1
0.112672
0.112722
0.112822
0.112971
0.11317
0.113418
0.113717
0.114068
0.114469
0.114921
0.115424
0.11598
0.116589
0.117253
0.117971
0.118746
0.119579
0.120471
0.121424
0.122439
0.123522
0.124677
0.12591
0.127223
0.128622
0.130112
0.131707
0.133415
0.13525
0.137227
0.139365
0.141673
0.144182
0.14692
0.149929
0.153251
0.156934
0.161041
0.165643
0.170823
0.176686
0.183352
0.190967
0.199678
0.209693
0.221158
0.234149
0.248976
0.265744
0.28442
0.305273
0.328689
0.354773
0.385664
0.423097
0.471461
0.532694
0.608027
0.774717
1
0.113452
0.113503
0.113605
0.113758
0.113962
0.114219
0.114528
0.114889
0.115304
0.11577
0.11629
0.116865
0.117495
0.118181
0.118924
0.119726
0.120588
0.121512
0.122498
0.12355
0.124672
0.12587
0.12715
0.128514
0.129971
0.131524
0.133188
0.134976
0.136901
0.13898
0.141223
0.143656
0.146308
0.149217
0.152424
0.155977
0.159936
0.16437
0.169363
0.175013
0.181446
0.188805
0.197256
0.206926
0.21808
0.230911
0.245732
0.262817
0.282374
0.304575
0.32976
0.358001
0.390724
0.431836
0.485623
0.565586
0.696073
0.946479
1
1
0.114125
0.114174
0.114273
0.114421
0.114617
0.114863
0.115159
0.115504
0.115902
0.116351
0.11685
0.1174
0.118001
0.118656
0.119365
0.120129
0.12095
0.121829
0.122766
0.123762
0.124819
0.125943
0.127141
0.128413
0.129766
0.131202
0.132735
0.134375
0.136135
0.138032
0.140067
0.142262
0.144637
0.147222
0.150052
0.153164
0.156603
0.160427
0.164698
0.16949
0.174912
0.1811
0.188202
0.196396
0.205878
0.216806
0.229438
0.24413
0.260995
0.28017
0.301917
0.326545
0.354396
0.38608
0.425247
0.480426
0.568943
0.742342
1
1
0.114667
0.114715
0.114812
0.114957
0.115152
0.115394
0.115688
0.116031
0.116424
0.116867
0.117361
0.117908
0.118507
0.119157
0.119862
0.120623
0.121441
0.122318
0.123253
0.124248
0.125305
0.126426
0.127616
0.128882
0.13023
0.131666
0.133196
0.134833
0.136591
0.138481
0.14051
0.142698
0.145066
0.14764
0.150454
0.153544
0.156955
0.160746
0.164979
0.169723
0.175065
0.181083
0.187905
0.195694
0.204625
0.214896
0.226729
0.240593
0.256963
0.276301
0.299179
0.326012
0.356973
0.392968
0.436601
0.494828
0.578434
0.727813
1
1
0.115092
0.115141
0.115235
0.115377
0.115567
0.115804
0.116091
0.116425
0.116809
0.117243
0.117726
0.11826
0.118846
0.119484
0.120174
0.120919
0.121715
0.122566
0.123476
0.124445
0.125473
0.126563
0.127722
0.128956
0.13027
0.131668
0.133153
0.134742
0.136446
0.138268
0.140224
0.142333
0.144611
0.147082
0.149782
0.152741
0.155999
0.159603
0.163617
0.168107
0.173167
0.178919
0.185475
0.192968
0.201594
0.211584
0.223191
0.236629
0.252509
0.271177
0.29303
0.318706
0.349216
0.385981
0.43113
0.490517
0.576842
0.725618
1
1
0.115449
0.115496
0.115588
0.115726
0.115912
0.116145
0.116425
0.116752
0.117127
0.11755
0.118022
0.118543
0.119113
0.119736
0.120412
0.121142
0.121925
0.122764
0.12366
0.124614
0.125627
0.126703
0.127842
0.129056
0.13035
0.131726
0.13319
0.134749
0.136421
0.138207
0.140124
0.142192
0.144429
0.146857
0.149507
0.152411
0.15561
0.159156
0.163098
0.167508
0.172475
0.178082
0.184459
0.191757
0.200174
0.209923
0.221267
0.234488
0.250053
0.268482
0.290246
0.315995
0.346369
0.38248
0.42696
0.484855
0.569732
0.714782
1
1
0.115705
0.115749
0.11584
0.115976
0.116159
0.116388
0.116662
0.116984
0.117352
0.117768
0.118233
0.118747
0.11931
0.119924
0.120588
0.121306
0.12208
0.122912
0.123799
0.124745
0.125751
0.126818
0.127948
0.129152
0.130433
0.131794
0.133242
0.134783
0.136435
0.138196
0.140085
0.142113
0.144295
0.146652
0.149214
0.152011
0.155081
0.158481
0.162259
0.166489
0.171257
0.176664
0.182832
0.189907
0.198077
0.207557
0.218597
0.231505
0.246727
0.264941
0.286653
0.312426
0.343134
0.379956
0.425092
0.483251
0.568199
0.71325
1
1
0.115895
0.11594
0.116028
0.116161
0.116343
0.116571
0.116843
0.117161
0.117526
0.117938
0.118399
0.118908
0.119467
0.120076
0.120736
0.121445
0.122204
0.123014
0.123878
0.1248
0.12578
0.126823
0.127931
0.129105
0.130357
0.131692
0.133115
0.134632
0.136262
0.138005
0.139877
0.14189
0.144059
0.146397
0.148939
0.151715
0.15476
0.158121
0.161847
0.166006
0.170673
0.17597
0.182023
0.188992
0.197045
0.206394
0.217293
0.230023
0.245039
0.262787
0.2839
0.309146
0.339411
0.376087
0.421234
0.479567
0.563603
0.708029
1
1
0.116105
0.116151
0.11624
0.116374
0.116551
0.116774
0.11704
0.11735
0.117708
0.11811
0.11856
0.119057
0.119603
0.120198
0.120841
0.121533
0.122276
0.123075
0.123928
0.124837
0.125807
0.126837
0.127931
0.129088
0.130318
0.131628
0.133023
0.134507
0.136095
0.137793
0.139616
0.141579
0.143705
0.146015
0.148532
0.151284
0.154301
0.157619
0.161299
0.1654
0.169992
0.175184
0.181084
0.187825
0.195598
0.204635
0.21522
0.227684
0.242529
0.260301
0.281696
0.307241
0.337779
0.37456
0.419883
0.478486
0.562409
0.706796
1
1
0.11624
0.116284
0.116371
0.116502
0.116677
0.116895
0.117158
0.117464
0.117817
0.118213
0.118658
0.119151
0.119689
0.120273
0.120906
0.121588
0.12232
0.123107
0.123949
0.124846
0.125803
0.12682
0.1279
0.129047
0.130258
0.131551
0.13293
0.134402
0.13597
0.137647
0.139445
0.141378
0.143464
0.145721
0.14817
0.150853
0.153809
0.157087
0.160723
0.164766
0.169278
0.174385
0.180213
0.186924
0.194689
0.20371
0.214225
0.226553
0.241179
0.258561
0.27941
0.304434
0.334728
0.371556
0.417079
0.475952
0.559779
0.704914
1
1
0.11636
0.116403
0.116489
0.116618
0.11679
0.117006
0.117264
0.117566
0.117914
0.118305
0.118745
0.119228
0.119757
0.120334
0.120958
0.12163
0.122354
0.123132
0.123963
0.124851
0.125795
0.126803
0.127871
0.129003
0.130198
0.131472
0.13283
0.134279
0.135823
0.137475
0.13925
0.141161
0.143223
0.145457
0.147879
0.150527
0.153436
0.156649
0.160219
0.164213
0.168711
0.173786
0.179537
0.18612
0.193714
0.202553
0.212907
0.225085
0.239475
0.256745
0.277702
0.303032
0.333506
0.37042
0.416099
0.475173
0.559009
0.703461
1
1
0.116457
0.1165
0.116586
0.116712
0.116883
0.117095
0.117351
0.117651
0.117995
0.118381
0.118813
0.119288
0.11981
0.120378
0.120993
0.121658
0.122375
0.123143
0.123966
0.124844
0.125781
0.126776
0.127833
0.128955
0.130141
0.131395
0.132734
0.134164
0.135689
0.137321
0.139074
0.140962
0.142997
0.145199
0.147589
0.150203
0.153076
0.156244
0.159759
0.163676
0.168079
0.173071
0.178773
0.185289
0.192795
0.201541
0.211816
0.223934
0.238254
0.255376
0.275937
0.300859
0.331134
0.368141
0.414058
0.473471
0.55777
0.702477
1
1
0.11654
0.116583
0.116666
0.116792
0.11696
0.117172
0.117426
0.117722
0.11806
0.118441
0.118865
0.119335
0.11985
0.120411
0.12102
0.12168
0.122389
0.12315
0.123965
0.124835
0.125762
0.126748
0.127793
0.128904
0.130078
0.131318
0.132642
0.134055
0.135565
0.137179
0.138912
0.140778
0.14279
0.144967
0.147333
0.149921
0.152761
0.155897
0.159377
0.163256
0.167613
0.172545
0.178169
0.184634
0.192105
0.200756
0.210885
0.222835
0.237038
0.254134
0.274775
0.299751
0.330142
0.367291
0.413359
0.472967
0.557272
0.701445
1
1
0.116612
0.116655
0.11674
0.116865
0.117029
0.117235
0.117485
0.117776
0.118109
0.118487
0.118908
0.119374
0.119884
0.120441
0.121045
0.121698
0.122401
0.123155
0.123963
0.124826
0.125745
0.126722
0.127758
0.128856
0.130019
0.131245
0.132555
0.133953
0.135448
0.137046
0.138762
0.140607
0.142599
0.144755
0.147094
0.149653
0.152461
0.155561
0.158998
0.162833
0.167139
0.172012
0.177563
0.183929
0.191291
0.199883
0.209927
0.221789
0.235897
0.252855
0.273302
0.298123
0.328341
0.36547
0.411786
0.471853
0.557048
0.701401
1
1
0.116676
0.116717
0.116799
0.11692
0.117083
0.117287
0.117534
0.117822
0.118154
0.118528
0.118944
0.119406
0.119912
0.120465
0.121065
0.121713
0.122411
0.12316
0.123962
0.124817
0.125728
0.126695
0.127722
0.128811
0.129965
0.131186
0.132477
0.13386
0.135338
0.136921
0.138621
0.140448
0.142421
0.144558
0.146877
0.149413
0.152194
0.155264
0.158667
0.162464
0.166731
0.171559
0.17706
0.183374
0.19067
0.199182
0.209193
0.220997
0.235008
0.251921
0.272352
0.29718
0.327509
0.364761
0.411263
0.471502
0.556697
0.700837
1
1
0.116727
0.116767
0.116848
0.116968
0.11713
0.117332
0.117577