/*--------------------------------*- C++ -*----------------------------------*\
| =========                 |                                                 |
| \\      /  F ield         | OpenFOAM: The Open Source CFD Toolbox           |
|  \\    /   O peration     | Version:  v1906                                 |
|   \\  /    A nd           | Web:      www.OpenFOAM.com                      |
|    \\/     M anipulation  |                                                 |
\*---------------------------------------------------------------------------*/
FoamFile
{
    version     2.0;
    format      ascii;
    class       volScalarField;
    location    "2.83";
    object      epsilon;
}
// * * * * * * * * * * * * * * * * * * * * * * * * * * * * * * * * * * * * * //

dimensions      [0 2 -3 0 0 0 0];


internalField   nonuniform List<scalar> 
26400
(
109.87
109.938
110.075
110.28
110.555
110.9
111.316
111.804
112.366
113.003
113.717
114.51
115.385
116.344
117.391
118.529
119.762
121.095
122.533
124.083
125.75
127.543
129.47
131.543
133.771
136.17
138.753
141.539
144.549
147.806
151.336
155.173
159.358
163.938
168.969
174.519
180.671
187.532
195.229
203.926
213.829
225.207
238.413
253.915
272.348
294.588
321.864
355.936
399.383
456.053
531.804
635.679
781.63
990.844
1294.77
1740.1
2403.84
3453.41
5476.32
11220.9
110.199
110.268
110.407
110.615
110.894
111.244
111.665
112.16
112.729
113.374
114.096
114.898
115.782
116.751
117.807
118.954
120.196
121.537
122.983
124.539
126.212
128.01
129.94
132.013
134.24
136.633
139.207
141.98
144.971
148.203
151.701
155.496
159.627
164.138
169.084
174.529
180.554
187.251
194.742
203.177
212.751
223.71
236.385
251.209
268.775
289.902
315.745
347.977
389.067
442.76
514.859
614.547
756.518
964.339
1274.25
1738.15
2433.18
3528.89
5589.67
11291.7
110.36
110.43
110.57
110.78
111.061
111.413
111.838
112.336
112.909
113.558
114.284
115.091
115.98
116.953
118.014
119.165
120.412
121.757
123.207
124.767
126.443
128.242
130.173
132.247
134.472
136.863
139.433
142.199
145.181
148.401
151.885
155.663
159.772
164.255
169.164
174.562
180.524
187.144
194.543
202.864
212.293
223.07
235.512
250.04
267.227
287.866
313.08
344.498
384.536
436.876
507.266
604.869
744.502
950.047
1259.09
1728.13
2442.5
3560.5
5639.11
11320.9
110.565
110.636
110.777
110.99
111.275
111.631
112.061
112.565
113.144
113.8
114.534
115.348
116.244
117.226
118.295
119.455
120.709
122.063
123.52
125.087
126.769
128.573
130.509
132.584
134.811
137.2
139.766
142.526
145.497
148.702
152.167
155.921
159.999
164.441
169.299
174.631
180.51
187.023
194.278
202.414
211.608
222.085
234.139
248.16
264.682
284.443
308.491
338.353
376.313
425.895
492.686
585.786
720.337
921.636
1230.85
1710.65
2450.69
3619.74
5740.05
11332.6
110.733
110.804
110.948
111.163
111.451
111.812
112.246
112.755
113.34
114.003
114.744
115.565
116.469
117.458
118.535
119.703
120.965
122.326
123.791
125.364
127.052
128.861
130.801
132.879
135.106
137.495
140.059
142.813
145.777
148.971
152.422
156.159
160.215
164.629
169.45
174.735
180.555
186.995
194.16
202.191
211.252
221.555
233.381
247.103
263.229
282.459
305.788
334.664
371.256
418.915
482.99
572.287
701.705
896.807
1200.89
1683.57
2445.84
3652.46
5803.64
11326
110.895
110.967
111.113
111.331
111.623
111.988
112.429
112.944
113.536
114.206
114.956
115.786
116.699
117.698
118.784
119.961
121.233
122.604
124.077
125.659
127.355
129.171
131.117
133.199
135.43
137.82
140.383
143.134
146.091
149.275
152.713
156.435
160.468
164.853
169.637
174.874
180.632
186.993
194.059
201.945
210.814
220.87
232.378
245.683
261.254
279.739
302.055
329.542
364.215
409.212
469.588
553.808
676.514
863.613
1160.69
1644.23
2427.93
3680.92
5886.66
11272.7
111.035
111.109
111.257
111.478
111.774
112.145
112.591
113.114
113.714
114.392
115.151
115.99
116.914
117.923
119.02
120.208
121.49
122.871
124.354
125.946
127.65
129.475
131.428
133.517
135.753
138.146
140.71
143.46
146.413
149.59
153.019
156.728
160.746
165.108
169.862
175.062
180.771
187.071
194.058
201.852
210.613
220.528
231.846
244.896
260.119
278.124
299.766
326.287
359.547
402.442
459.648
539.067
654.604
831.539
1116.33
1591.28
2386.5
3687.7
5950.94
11196.2
111.159
111.233
111.383
111.608
111.909
112.285
112.738
113.268
113.876
114.564
115.333
116.183
117.118
118.138
119.248
120.448
121.743
123.136
124.631
126.234
127.95
129.785
131.747
133.845
136.087
138.485
141.052
143.803
146.755
149.927
153.348
157.047
161.048
165.39
170.115
175.277
180.939
187.177
194.087
201.782
210.402
220.133
231.213
243.951
258.76
276.202
297.067
322.496
354.193
394.806
448.623
522.935
630.732
796.202
1065.61
1525.85
2323.78
3669.28
5982.41
11052.9
111.256
111.333
111.485
111.713
112.019
112.401
112.861
113.399
114.017
114.715
115.495
116.358
117.305
118.338
119.461
120.675
121.983
123.39
124.899
126.515
128.243
130.091
132.064
134.171
136.422
138.828
141.4
144.154
147.106
150.275
153.69
157.38
161.368
165.69
170.39
175.519
181.138
187.324
194.167
201.781
210.305
219.916
230.842
243.376
257.909
274.97
295.297
319.945
350.476
389.295
440.279
510.006
610.282
763.484
1013.83
1449.1
2229.85
3597
5971.58
10818.6
111.31
111.388
111.544
111.778
112.09
112.481
112.951
113.5
114.129
114.84
115.632
116.507
117.468
118.515
119.652
120.881
122.205
123.627
125.152
126.783
128.526
130.387
132.373
134.493
136.754
139.168
141.748
144.506
147.46
150.627
154.037
157.718
161.691
165.992
170.663
175.755
181.328
187.454
194.223
201.74
210.145
219.607
230.344
242.636
256.856
273.502
293.263
317.117
346.502
383.61
431.95
497.436
590.687
732.015
962.688
1368.64
2120.41
3494.44
5912.03
10571.4
111.33
111.408
111.566
111.802
112.118
112.515
112.993
113.551
114.192
114.916
115.723
116.615
117.592
118.657
119.811
121.058
122.398
123.837
125.378
127.025
128.784
130.661
132.662
134.795
137.069
139.494
142.082
144.847
147.803
150.971
154.377
158.047
162.005
166.285
170.927
175.981
181.506
187.571
194.264
201.696
209.993
219.323
229.896
241.984
255.945
272.256
291.572
314.812
343.311
379.085
425.311
487.28
574.382
704.527
914.573
1284.1
1982.99
3316.76
5734.76
10246.2
111.313
111.393
111.553
111.794
112.115
112.517
113
113.565
114.212
114.943
115.759
116.661
117.652
118.733
119.905
121.17
122.531
123.991
125.553
127.221
129
130.895
132.914
135.063
137.352
139.79
142.388
145.16
148.121
151.29
154.692
158.354
162.298
166.556
171.168
176.183
181.656
187.656
194.264
201.587
209.753
218.921
229.296
241.139
254.794
270.72
289.543
312.136
339.759
374.291
418.661
477.685
559.796
680.941
873.777
1210.22
1851.89
3118.12
5498.53
10033.9
111.192
111.274
111.439
111.686
112.015
112.427
112.923
113.501
114.163
114.91
115.741
116.658
117.661
118.753
119.936
121.212
122.585
124.058
125.635
127.321
129.119
131.034
133.073
135.242
137.55
140.006
142.621
145.408
148.381
151.558
154.964
158.623
162.557
166.798
171.384
176.361
181.782
187.714
194.244
201.467
209.507
218.516
228.693
240.292
253.643
269.192
287.54
309.525
336.347
369.777
412.546
469.067
546.92
660.157
837.18
1141.01
1717.81
2882.6
5173.96
9946.63
110.949
111.033
111.2
111.452
111.787
112.207
112.712
113.301
113.976
114.737
115.584
116.519
117.543
118.657
119.863
121.162
122.557
124.05
125.645
127.346
129.157
131.084
133.133
135.313
137.631
140.097
142.723
145.522
148.508
151.695
155.108
158.771
162.703
166.936
171.504
176.454
181.839
187.723
194.179
201.299
209.203
218.038
227.993
239.31
252.311
267.42
285.218
306.515
332.468
364.787
406.094
460.6
535.456
643.696
811.011
1093.29
1620.68
2685.68
4886.39
10156.5
110.522
110.607
110.777
111.033
111.373
111.8
112.312
112.911
113.596
114.368
115.228
116.176
117.214
118.344
119.566
120.884
122.299
123.815
125.434
127.161
129
130.956
133.034
135.242
137.586
140.077
142.723
145.537
148.533
151.728
155.148
158.814
162.747
166.976
171.535
176.467
181.819
187.65
194.033
201.058
208.835
217.504
227.243
238.282
250.924
265.576
282.792
303.346
328.35
359.449
399.17
451.572
523.541
627.565
788.193
1058.22
1560.04
2576.76
4789.62
10784
109.81
109.896
110.068
110.326
110.67
111.102
111.62
112.225
112.918
113.698
114.567
115.525
116.573
117.713
118.946
120.275
121.702
123.23
124.862
126.602
128.454
130.424
132.517
134.74
137.101
139.608
142.272
145.105
148.12
151.333
154.768
158.445
162.385
166.614
171.167
176.082
181.408
187.199
193.523
200.463
208.12
216.623
226.137
236.875
249.119
263.247
279.781
299.452
323.315
352.939
390.743
440.629
509.239
608.66
762.756
1023.04
1509.71
2512.56
4837.05
11722.4
108.684
108.77
108.943
109.202
109.548
109.98
110.5
111.107
111.802
112.585
113.456
114.417
115.469
116.612
117.849
119.182
120.614
122.146
123.782
125.526
127.383
129.357
131.454
133.681
136.045
138.556
141.223
144.058
147.076
150.29
153.724
157.398
161.333
165.555
170.096
174.994
180.293
186.045
192.312
199.17
206.711
215.05
224.334
234.754
246.559
260.087
275.807
294.374
316.744
344.34
379.369
425.4
488.561
580.161
723.014
967.747
1438.29
2458.69
5038.35
13162.9
106.953
107.038
107.208
107.464
107.804
108.23
108.743
109.341
110.025
110.797
111.656
112.603
113.64
114.769
115.99
117.306
118.719
120.233
121.85
123.574
125.41
127.362
129.436
131.639
133.978
136.462
139.102
141.908
144.894
148.077
151.477
155.116
159.014
163.199
167.704
172.565
177.824
183.532
189.744
196.531
203.974
212.173
221.253
231.37
242.73
255.607
270.378
287.578
307.992
332.801
363.858
404.192
459.042
538.166
661.72
877.176
1314.26
2363.94
5319.12
15973.9
104.429
104.511
104.674
104.92
105.248
105.659
106.154
106.731
107.392
108.137
108.967
109.883
110.885
111.976
113.156
114.429
115.797
117.262
118.828
120.498
122.277
124.17
126.181
128.317
130.586
132.995
135.555
138.277
141.174
144.261
147.557
151.081
154.856
158.908
163.27
167.978
173.075
178.61
184.639
191.229
198.454
206.405
215.188
224.93
235.793
247.985
261.787
277.599
296.02
317.988
345.041
379.82
426.989
495.381
604.094
799.392
1213.29
2321.85
5467.75
19359.7
100.899
100.975
101.127
101.354
101.657
102.035
102.491
103.022
103.631
104.317
105.08
105.922
106.843
107.844
108.928
110.095
111.348
112.689
114.121
115.647
117.27
118.994
120.823
122.763
124.819
126.998
129.308
131.758
134.357
137.12
140.061
143.198
146.547
150.134
153.986
158.135
162.62
167.484
172.781
178.571
184.925
191.925
199.665
208.257
217.83
228.539
240.581
254.215
269.834
288.091
310.176
338.29
376.243
430.971
522.788
703.506
1104.34
2415.24
6455.85
20409.9
96.0578
96.1236
96.2562
96.4559
96.7228
97.0572
97.4592
97.9291
98.4669
99.0726
99.7466
100.489
101.301
102.183
103.136
104.16
105.259
106.432
107.682
109.011
110.42
111.913
113.491
115.156
116.912
118.762
120.708
122.755
124.906
127.166
129.541
132.038
134.662
137.419
140.32
143.374
146.593
149.995
153.596
157.419
161.493
165.853
170.54
175.606
181.119
187.164
193.844
201.278
209.575
218.81
228.973
240.205
253.403
271.182
295.778
332.886
412.051
457.138
1369.72
16543.3
90.5407
90.6059
90.7359
90.9305
91.1899
91.5141
91.9033
92.3576
92.8772
93.4621
94.1123
94.828
95.6093
96.4567
97.3708
98.3524
99.4023
100.521
101.711
102.971
104.303
105.709
107.188
108.742
110.372
112.077
113.86
115.719
117.655
119.67
121.766
123.943
126.199
128.536
130.954
133.455
136.042
138.717
141.487
144.362
147.354
150.482
153.774
157.268
161.021
165.112
169.66
174.843
180.943
188.392
197.86
210.519
228.242
254.007
293.75
359.515
496.112
893.627
2439.8
12461.5
83.5299
83.5824
83.6884
83.8483
84.062
84.3294
84.65
85.0235
85.4496
85.9278
86.4577
87.039
87.6713
88.354
89.0864
89.8679
90.6981
91.5766
92.5032
93.4773
94.498
95.5641
96.6746
97.8281
99.0228
100.257
101.53
102.839
104.182
105.558
106.968
108.411
109.886
111.393
112.935
114.518
116.148
117.837
119.6
121.461
123.451
125.615
128.011
130.713
133.821
137.462
141.794
147.023
153.418
161.35
171.38
184.258
201.279
224.97
260.671
321.452
446.247
798.52
2219.91
10364.7
76.2136
76.2581
76.347
76.48
76.6568
76.8773
77.1413
77.4486
77.7985
78.1905
78.624
79.0983
79.6128
80.1664
80.7582
81.3874
82.0534
82.7554
83.4927
84.2643
85.0691
85.9059
86.773
87.6688
88.5913
89.5391
90.5106
91.5048
92.5203
93.5566
94.6164
95.7002
96.8105
97.9513
99.1291
100.354
101.64
103.002
104.464
106.057
107.819
109.802
112.072
114.714
117.841
121.599
126.174
131.803
138.784
147.491
158.386
172.198
190.2
214.705
250.715
310.904
429.534
735.292
1835.52
8441.42
68.6778
68.7113
68.7793
68.8819
69.0191
69.1905
69.3959
69.6347
69.9065
70.2107
70.5462
70.9125
71.3084
71.7328
72.1851
72.6647
73.1709
73.7029
74.2593
74.8392
75.4413
76.0646
76.7074
77.3682
78.0452
78.7375
79.4445
80.166
80.9022
81.6539
82.4238
83.2158
84.0334
84.8835
85.7764
86.725
87.7468
88.8638
90.1052
91.5085
93.1216
95.0044
97.2312
99.8947
103.108
107.01
111.769
117.597
124.762
133.617
144.675
158.598
176.367
199.95
233.666
288.432
396.025
675.241
1679.52
7131.46
61.4234
61.4499
61.5034
61.5838
61.691
61.8247
61.9844
62.1695
62.3794
62.6135
62.8715
63.1526
63.456
63.7812
64.1279
64.4958
64.8844
65.2928
65.7203
66.1662
66.6295
67.1092
67.6047
68.1156
68.6414
69.1819
69.7376
70.3098
70.9006
71.5129
72.152
72.8231
73.5324
74.2891
75.1051
75.9955
76.9793
78.0811
79.3316
80.7701
82.4465
84.424
86.7821
89.6215
93.0682
97.279
102.447
108.803
116.625
126.233
137.996
152.449
170.575
194.158
227.097
279.13
375.074
607.626
1409.66
6025.27
54.7288
54.749
54.7903
54.8527
54.936
55.0398
55.1639
55.3075
55.4705
55.6522
55.8521
56.0702
56.3064
56.5609
56.8331
57.1224
57.4283
57.7505
58.0884
58.442
58.8112
59.1957
59.5954
60.0102
60.4401
60.8855
61.3479
61.8297
62.334
62.8645
63.4271
64.0285
64.6759
65.3796
66.1521
67.0094
67.9722
69.0664
70.3241
71.7854
73.5003
75.5313
77.9559
80.8695
84.3887
88.6564
93.8485
100.178
107.907
117.375
129.055
143.504
161.399
184.136
214.898
262.082
350.926
568.641
1302.86
5188.35
48.7079
48.7241
48.7569
48.806
48.8711
48.952
49.0485
49.1616
49.2909
49.4352
49.5943
49.7679
49.9568
50.1606
50.3794
50.613
50.8611
51.1235
51.4001
51.6915
51.9978
52.3194
52.6568
53.0104
53.3814
53.771
54.1816
54.6162
55.0784
55.5725
56.1049
56.6823
57.3126
58.006
58.7759
59.6389
60.6155
61.7321
63.0214
64.5248
66.2933
68.391
70.8986
73.9188
77.581
82.0471
87.5148
94.2229
102.449
112.503
124.716
139.522
157.63
180.274
210.227
254.582
332.269
512.034
1112.03
4497.75
43.4521
43.4651
43.4915
43.5316
43.5849
43.651
43.7299
43.8216
43.9264
44.0447
44.1765
44.3216
44.4796
44.6505
44.8346
45.0321
45.2436
45.4695
45.7099
45.9647
46.2344
46.5197
46.8215
47.1411
47.4801
47.8406
48.2253
48.6375
49.0814
49.5618
50.0849
50.6578
51.2893
51.9908
52.7756
53.66
54.6649
55.816
57.1455
58.6936
60.5093
62.6534
65.2027
68.2533
71.9257
76.37
81.7742
88.373
96.4594
106.395
118.623
133.619
151.892
174.361
203.13
244.071
315.209
482.115
1029.38
3915
38.9152
38.9259
38.9479
38.9811
39.0251
39.08
39.1458
39.2228
39.3113
39.4114
39.5233
39.6471
39.7829
39.9309
40.0914
40.2645
40.4508
40.6509
40.8651
41.0939
41.338
41.5981
41.8755
42.1719
42.4895
42.8306
43.1978
43.5949
44.0261
44.4968
45.0135
45.5838
46.2165
46.9225
47.7151
48.6109
49.6303
50.7984
52.1471
53.7168
55.5576
57.7334
60.325
63.4345
67.1915
71.7609
77.3483
84.2076
92.6457
103.017
115.69
131.05
149.669
172.366
200.902
240.177
304.135
443.262
888.834
3380.32
35.0756
35.0842
35.1025
35.1307
35.1684
35.2158
35.273
35.3403
35.4176
35.5053
35.6036
35.7127
35.8331
35.9651
36.1092
36.2656
36.4348
36.6174
36.8139
37.0251
37.252
37.4955
37.7572
38.0391
38.3434
38.673
39.031
39.4213
39.8484
40.3177
40.8359
41.4107
42.0508
42.7674
43.5737
44.4862
45.5252
46.7164
48.0905
49.6863
51.5528
53.7515
56.3594
59.4736
63.219
67.7539
73.2774
80.0422
88.3654
98.6471
111.364
127.067
146.221
169.448
198.025
235.516
294.384
423.561
828.446
2952.82
31.8419
31.8496
31.8658
31.891
31.9249
31.9675
32.0186
32.0784
32.1473
32.2256
32.3138
32.412
32.5206
32.6399
32.7705
32.913
33.0679
33.2358
33.4174
33.6136
33.8255
34.0547
34.3027
34.5718
34.8643
35.1826
35.5303
35.9112
36.33
36.7919
37.3038
37.8731
38.5085
39.2211
40.024
40.934
41.9718
43.1624
44.5369
46.1347
48.005
50.2105
52.8311
55.9696
59.7581
64.365
70.0055
76.9496
85.5284
96.1389
109.237
125.301
144.904
168.628
197.609
234.396
288.523
397.807
729.42
2563.6
29.1531
29.16
29.1748
29.1974
29.2278
29.2659
29.3118
29.3659
29.4284
29.4996
29.5799
29.6699
29.7697
29.8797
30.0002
30.1318
30.2752
30.4309
30.6
30.7836
30.9831
31.2002
31.4369
31.6952
31.9774
32.2861
32.6246
32.997
33.4078
33.8625
34.3676
34.9311
35.562
36.2713
37.0729
37.9832
39.0229
40.2167
41.5952
43.1968
45.0703
47.2771
49.8953
53.024
56.7908
61.3586
66.9376
73.798
82.2847
92.8342
105.992
122.411
142.671
167.348
196.882
233.333
284.553
384.742
680.634
2242.92
26.9249
26.9314
26.9451
26.9659
26.9935
27.0279
27.0695
27.1187
27.1759
27.2413
27.3154
27.3982
27.4901
27.5918
27.7037
27.8262
27.9598
28.105
28.2631
28.4353
28.6231
28.8281
29.0521
29.2974
29.5662
29.8617
30.1872
30.5464
30.9439
31.3851
31.8767
32.4266
33.0436
33.7388
34.526
35.4219
36.4471
37.6263
38.9905
40.579
42.4406
44.6383
47.2532
50.3892
54.1796
58.7956
64.4574
71.4485
80.133
90.9475
104.412
121.145
141.863
167.301
197.971
235.152
283.731
370.054
612.679
1940.23
25.0953
25.1011
25.1133
25.1321
25.1572
25.1888
25.2273
25.2728
25.3257
25.3861
25.4543
25.5309
25.6162
25.7106
25.8147
25.9288
26.0538
26.1901
26.3386
26.5006
26.6773
26.8705
27.0822
27.3146
27.5702
27.8519
28.1632
28.508
28.8912
29.3183
29.7957
30.3312
30.9336
31.6142
32.3868
33.2684
34.279
35.4437
36.7939
38.3681
40.2152
42.3986
44.9982
48.1167
51.8874
56.4815
62.1189
69.0809
77.7374
88.5565
102.146
119.243
140.593
166.807
198.355
236.165
283.674
362.703
573.535
1689.7
23.5995
23.6046
23.6156
23.6329
23.6562
23.6856
23.7215
23.7641
23.8134
23.8698
23.9333
24.0046
24.0839
24.1719
24.2689
24.3756
24.4922
24.6195
24.7583
24.9098
25.0755
25.257
25.4562
25.6752
25.9165
26.1832
26.4787
26.8072
27.1733
27.5823
28.0405
28.5559
29.1376
29.7969
30.5472
31.4052
32.3917
33.5318
34.8571
36.4064
38.2303
40.3932
42.9776
46.0902
49.8709
54.502
60.2181
67.3177
76.1765
87.2491
101.092
118.495
140.327
167.403
200.691
240.73
288.565
358.128
529.266
1442.21
22.387
22.3918
22.4022
22.4185
22.4405
22.4683
22.5021
22.542
22.5883
22.6412
22.701
22.7678
22.8423
22.9248
23.0157
23.1154
23.2244
23.3436
23.4736
23.6155
23.7706
23.9407
24.1277
24.3337
24.5613
24.8132
25.0931
25.4047
25.7528
26.1429
26.5816
27.0764
27.6364
28.2732
29.001
29.8362
30.7991
31.9152
33.2164
34.7422
36.5431
38.6844
41.2485
44.3422
48.1067
52.727
58.445
65.5736
74.5167
85.8037
100.038
117.905
140.037
167.582
201.66
242.884
291.488
356.805
501.039
1240.16
21.4125
21.4174
21.4278
21.4436
21.4645
21.4907
21.5225
21.5603
21.6042
21.6543
21.711
21.7746
21.8453
21.9232
22.0088
22.1027
22.2053
22.3173
22.4393
22.5724
22.718
22.8776
23.0531
23.2468
23.4611
23.6986
23.9628
24.2577
24.5881
24.9593
25.3775
25.8508
26.3884
27.0016
27.7044
28.5138
29.451
30.5418
31.8181
33.3205
35.1014
37.2274
39.7832
42.8807
46.6688
51.3414
57.1527
64.4357
73.6016
85.163
99.7703
117.988
140.955
169.704
205.25
248.345
298.494
358.152
472.667
1019.13
20.6403
20.645
20.6549
20.67
20.6903
20.7159
20.7467
20.7832
20.8256
20.874
20.9287
20.9898
21.0574
21.1318
21.2134
21.3025
21.3999
21.5061
21.6217
21.7477
21.8853
22.036
22.2016
22.3842
22.5864
22.8108
23.0609
23.3406
23.6544
24.0077
24.4066
24.8588
25.374
25.9637
26.6423
27.4265
28.3377
29.402
30.6526
32.1315
33.8922
36.003
38.5499
41.6481
45.4556
50.1756
56.0738
63.4984
72.9001
84.8826
99.9023
118.814
142.555
172.035
207.974
251.055
301.653
357.684
444.247
791.605
20.0349
20.0395
20.0493
20.0642
20.0842
20.1092
20.1394
20.175
20.2162
20.2631
20.3158
20.3743
20.4392
20.5105
20.5885
20.6738
20.7665
20.8674
20.9771
21.0964
21.2263
21.3683
21.5243
21.6964
21.8869
22.0988
22.335
22.5995
22.8966
23.2313
23.61
24.0403
24.532
25.0964
25.7474
26.5021
27.382
28.4133
29.6295
31.0732
32.7995
34.8804
37.4136
40.524
44.3691
49.1648
55.1982
62.8366
72.5418
84.8194
100.357
120.077
144.697
174.887
211.582
255.307
306.612
361.811
417.707
531.614
19.5493
19.5544
19.5646
19.5801
19.6005
19.626
19.6568
19.6931
19.735
19.7824
19.8358
19.895
19.9601
20.0314
20.1092
20.1938
20.2857
20.3853
20.4932
20.6103
20.7375
20.8761
21.0281
21.1954
21.3802
21.5856
21.8147
22.0713
22.3593
22.6836
23.0511
23.4702
23.9502
24.5027
25.1419
25.8855
26.7556
27.7799
28.9934
30.4403
32.1771
34.2766
36.8333
39.9726
43.8618
48.726
54.8611
62.6513
72.5657
85.1537
101.174
121.092
145.621
175.443
211.001
252.042
296.333
329.162
337.899
292.448
19.1677
19.1724
19.1822
19.1969
19.2166
19.2414
19.2713
19.3062
19.3464
19.3917
19.4422
19.498
19.5593
19.626
19.6983
19.7765
19.8607
19.9513
20.0488
20.1536
20.2663
20.3879
20.5196
20.663
20.8197
20.9918
21.1818
21.393
21.6294
21.8955
22.1952
22.5341
22.919
23.3586
23.8629
24.4446
25.119
25.9056
26.8287
27.919
29.2157
30.7688
32.6431
34.922
37.7155
41.1692
45.4769
50.9044
57.8128
66.6746
78.0434
92.6138
111.269
135.042
165.111
202.949
250.762
313.02
385.371
496.293
18.9115
18.9165
18.9266
18.9417
18.9616
18.9865
19.0162
19.0511
19.0912
19.1365
19.1869
19.2423
19.3025
19.3679
19.4386
19.5149
19.597
19.685
19.7792
19.8802
19.9885
20.1047
20.2301
20.3661
20.5142
20.6761
20.8539
21.0498
21.2669
21.5087
21.7797
22.0851
22.4309
22.8248
23.276
23.7954
24.3963
25.0954
25.9138
26.8788
28.0251
29.3966
31.0502
33.0596
35.5206
38.5584
42.3369
47.0678
53.0445
60.6598
70.404
83.0078
99.3372
120.426
147.594
182.701
228.89
292.7
387.073
561.843
18.7361
18.741
18.751
18.7662
18.7864
18.8116
18.8418
18.8771
18.9174
18.9627
19.0132
19.0687
19.1293
19.1949
19.2655
19.341
19.4218
19.5078
19.5995
19.6972
19.8014
19.9126
20.0314
20.1587
20.2959
20.4446
20.6066
20.7839
20.979
21.195
21.4359
21.7062
22.0114
22.358
22.7538
23.2083
23.7332
24.3425
25.0533
25.8879
26.8753
28.0526
29.468
31.1832
33.2802
35.8683
39.0956
43.161
48.3403
55.0127
63.7677
75.2396
90.2845
110.082
136.192
170.879
217.952
285.27
395.589
632.807
18.6386
18.6438
18.6545
18.6704
18.6914
18.7176
18.7489
18.7855
18.8271
18.8739
18.9257
18.9823
19.0437
19.1099
19.1807
19.2564
19.337
19.4226
19.5135
19.6101
19.7127
19.8217
19.9374
20.0608
20.1928
20.3349
20.4889
20.6566
20.8402
21.0425
21.267
21.5184
21.8028
22.1255
22.4934
22.9152
23.4021
23.9676
24.6272
25.4005
26.3146
27.4043
28.7137
30.2998
32.2377
34.6277
37.604
41.3503
46.1155
52.2187
60.1036
70.4305
84.0877
102.274
126.772
160.172
206.857
276.739
397.787
683.788
18.5945
18.5999
18.6107
18.6269
18.6485
18.6754
18.7076
18.745
18.7876
18.8353
18.888
18.9456
19.0081
19.0752
19.1469
19.2232
19.3041
19.39
19.4811
19.5775
19.6796
19.7876
19.902
20.0232
20.1524
20.2909
20.4402
20.6021
20.7785
20.972
21.1856
21.4227
21.6875
21.9852
22.322
22.7057
23.1466
23.6578
24.2535
24.9522
25.7792
26.7649
27.9489
29.3826
31.1356
33.3011
36.0052
39.421
43.7902
49.4797
56.9892
66.9596
80.2682
98.093
122.195
155.264
202.176
273.935
403.902
726.09
18.5819
18.5874
18.5984
18.615
18.6369
18.6642
18.6969
18.735
18.7783
18.8267
18.8803
18.9388
19.0019
19.0697
19.1421
19.2191
19.3008
19.3873
19.4787
19.5754
19.6775
19.7854
19.8993
20.0197
20.1477
20.2844
20.4314
20.5904
20.7632
20.9523
21.1607
21.3912
21.6466
21.9311
22.2521
22.6168
23.0341
23.5162
24.0784
24.7415
25.5277
26.4652
27.5914
28.9549
30.622
32.6823
35.2556
38.5057
42.6522
47.994
54.969
64.2135
76.6464
93.6245
116.932
149.435
196.396
269.804
406.001
765.811
18.6031
18.6088
18.6204
18.6379
18.6612
18.6901
18.7247
18.7649
18.8106
18.8617
18.918
18.9792
19.0453
19.116
19.1915
19.2716
19.3563
19.4455
19.5393
19.6378
19.7411
19.8496
19.9636
20.0834
20.2094
20.3429
20.4856
20.6386
20.8035
20.983
21.1802
21.399
21.6439
21.9203
22.2327
22.5874
22.991
23.4515
23.9846
24.6078
25.3426
26.2167
27.2678
28.5423
30.1042
32.0374
34.4561
37.5204
41.4577
46.6051
53.4171
62.5276
74.8103
91.5141
114.557
146.937
194.156
268.864
411.157
792.657
18.6568
18.6629
18.6749
18.693
18.717
18.7469
18.7826
18.824
18.8711
18.9237
18.9814
19.0443
19.1122
19.1849
19.2623
19.3444
19.431
19.5221
19.6176
19.7177
19.8226
19.9324
20.0475
20.1683
20.2954
20.4298
20.5727
20.7255
20.8898
21.0678
21.2616
21.4743
21.7095
21.9716
22.2668
22.6027
22.989
23.4371
23.957
24.5608
25.2684
26.1088
27.1199
28.3508
29.8617
31.7328
34.0745
37.0404
40.8345
45.7542
52.2304
60.896
72.6838
88.9286
111.55
143.658
191.024
267.066
413.304
824.555
18.7267
18.7331
18.7457
18.7645
18.7895
18.8207
18.8579
18.9011
18.9501
19.0046
19.0646
19.1299
19.2003
19.2757
19.3559
19.4407
19.5299
19.6235
19.7214
19.8236
19.9302
20.0415
20.1577
20.2796
20.4074
20.5419
20.6842
20.8358
20.9982
21.1736
21.3643
21.5732
21.804
22.0608
22.349
22.6746
23.0456
23.4725
23.9691
24.5531
25.2441
26.0628
27.0372
28.2156
29.6581
31.446
33.6887
36.5387
40.2148
45.024
51.4023
59.9774
71.6464
87.7234
110.21
142.296
189.917
267.063
417.859
842.45
18.8126
18.819
18.8319
18.8514
18.8773
18.9096
18.9482
18.9928
19.0435
19.0999
19.1621
19.2297
19.3026
19.3806
19.4634
19.5507
19.6424
19.7384
19.8385
19.9429
20.0515
20.1647
20.2828
20.4062
20.5355
20.6713
20.8145
20.9665
21.1287
21.3031
21.4919
21.698
21.9249
22.1767
22.4588
22.7773
23.1399
23.5563
24.0383
24.6013
25.2658
26.0588
27.0138
28.165
29.5693
31.3128
33.5056
36.2914
39.8683
44.5299
50.7006
59.0058
70.377
86.1769
108.427
140.405
188.22
266.184
420.023
868.435
18.9086
18.9153
18.9288
18.9491
18.9759
19.0092
19.0491
19.0953
19.1478
19.2065
19.2711
19.3412
19.4167
19.4973
19.5826
19.6725
19.7668
19.8653
19.9679
20.0747
20.1856
20.3008
20.4208
20.546
20.6768
20.8138
20.9579
21.1103
21.2725
21.4463
21.6339
21.8381
22.0623
22.3104
22.5876
22.8998
23.2548
23.6619
24.133
24.6829
25.3307
26.1007
27.0262
28.1521
29.5312
31.2279
33.3544
36.0595
39.5568
44.1402
50.2363
58.4691
69.7555
85.4527
107.636
139.651
187.73
266.684
423.925
881.686
19.013
19.0199
19.0338
19.0546
19.0824
19.117
19.1584
19.2065
19.2611
19.3218
19.3884
19.4608
19.5386
19.6216
19.7095
19.802
19.8989
20
20.1051
20.2143
20.3276
20.4453
20.5676
20.6948
20.8276
20.9665
21.1119
21.2653
21.4282
21.6021
21.7893
21.9924
22.2147
22.4604
22.7343
23.0424
23.3919
23.7922
24.2546
24.794
25.4288
26.183
27.0877
28.1845
29.5303
31.2023
33.2894
35.9442
39.3763
43.8628
49.824
57.8833
68.978
84.5025
106.558
138.573
186.955
266.507
426.239
902.699
19.1235
19.1307
19.1451
19.1667
19.1956
19.2315
19.2745
19.3243
19.3806
19.4432
19.512
19.5866
19.6668
19.7523
19.8427
19.9378
20.0372
20.1409
20.2488
20.3606
20.4765
20.5966
20.7211
20.8503
20.9849
21.1255
21.2726
21.4276
21.5916
21.7662
21.9536
22.1561
22.3772
22.6209
22.892
23.1965
23.5413
23.9358
24.3911
24.9218
25.5458
26.2867
27.1752
28.2517
29.5707
31.2065
33.2646
35.8736
39.2376
43.6611
49.5623
57.5617
68.5942
84.054
106.081
138.165
186.858
267.49
429.686
913.297
19.2395
19.247
19.2619
19.2843
19.3142
19.3513
19.3955
19.4468
19.5048
19.5692
19.64
19.7168
19.7992
19.887
19.9799
20.0776
20.1799
20.2864
20.397
20.5117
20.6303
20.753
20.88
21.0115
21.1482
21.2907
21.4398
21.5963
21.7615
21.9372
22.1251
22.3278
22.5487
22.7915
23.0609
23.3628
23.7045
24.0947
24.5447
25.0685
25.6842
26.4147
27.2904
28.3511
29.6497
31.2588
33.2786
35.8531
39.1696
43.5162
49.3211
57.2073
68.1154
83.4589
105.42
137.562
186.535
267.734
432.252
929.731
19.3594
19.3671
19.3825
19.4056
19.4363
19.4744
19.52
19.5728
19.6324
19.6988
19.7715
19.8503
19.9349
20.025
20.1205
20.2208
20.3256
20.4349
20.5483
20.6658
20.7872
20.9128
21.0425
21.1767
21.3158
21.4606
21.6118
21.7702
21.9368
22.1135
22.3022
22.5055
22.7262
22.9684
23.2368
23.5369
23.8758
24.2625
24.7079
25.2259
25.8341
26.5555
27.4198
28.4665
29.7481
31.3359
33.3285
35.865
39.1466
43.446
49.1939
57.0304
67.8835
83.1812
105.134
137.363
186.685
269.016
435.611
938.963
19.4824
19.4902
19.506
19.5297
19.5612
19.6005
19.6474
19.7015
19.7628
19.8308
19.9054
19.9863
20.0732
20.1657
20.2634
20.3662
20.4737
20.5857
20.7019
20.8223
20.9468
21.0754
21.208
21.3451
21.4869
21.6342
21.7876
21.9478
22.1162
22.2943
22.4841
22.6882
22.9094
23.1516
23.4193
23.7182
24.0554
24.4396
24.8817
25.3952
25.9976
26.7115
27.5666
28.6017
29.869
31.439
33.4093
35.9167
39.1575
43.4183
49.1052
56.8579
67.6226
82.8439
104.774
137.109
186.635
269.502
438.252
953.195
19.6059
19.6141
19.6304
19.6547
19.6871
19.7274
19.7755
19.8311
19.894
19.964
20.0407
20.1237
20.2128
20.3076
20.408
20.5134
20.6237
20.7384
20.8575
20.9809
21.1083
21.2398
21.3755
21.5154
21.6602
21.81
21.9656
22.1281
22.2985
22.4784
22.6698
22.875
23.097
23.3396
23.6071
23.9053
24.2412
24.6232
25.0623
25.572
26.1691
26.8764
27.723
28.7475
30.0012
31.5541
33.5029
35.984
39.1928
43.4138
49.065
56.7724
67.4964
82.6873
104.624
137.068
187.029
270.94
441.55
961.777
19.7295
19.7379
19.7546
19.7797
19.8131
19.8546
19.9041
19.9614
20.0261
20.098
20.1767
20.262
20.3536
20.4511
20.554
20.6622
20.7753
20.8931
21.0152
21.1415
21.2719
21.4064
21.5448
21.6877
21.8351
21.9876
22.1459
22.3108
22.4835
22.6655
22.8586
23.0654
23.2886
23.532
23.7999
24.098
24.433
24.8136
25.2504
25.7569
26.3503
27.0526
27.8926
28.9085
30.1511
31.6899
33.6208
36.0788
39.2577
43.4411
49.05
56.7011
67.3564
82.4948
104.429
136.975
187.137
271.565
444.101
974.05
19.8547
19.8633
19.8805
19.9062
19.9406
19.9833
20.0342
20.093
20.1594
20.2333
20.3142
20.4018
20.4957
20.5957
20.7014
20.8124
20.9284
21.0491
21.1743
21.3037
21.4371
21.5746
21.7161
21.8619
22.0122
22.1676
22.3286
22.4962
22.6714
22.8556
23.0507
23.2591
23.4837
23.728
23.9966
24.295
24.6299
25.0098
25.4449
25.9488
26.5387
27.2361
28.0697
29.0774
30.3096
31.8354
33.7496
36.1864
39.3385
43.4882
49.0563
56.6746
67.2915
82.4098
104.359
137.034
187.676
273.112
447.45
982.134
19.9813
19.9902
20.0078
20.0343
20.0695
20.1133
20.1656
20.226
20.2943
20.3701
20.4531
20.543
20.6394
20.742
20.8505
20.9644
21.0834
21.2072
21.3353
21.4677
21.6041
21.7445
21.889
22.0377
22.1909
22.3492
22.5131
22.6835
22.8614
23.048
23.2453
23.4556
23.6818
23.9276
24.1974
24.4964
24.8314
25.2107
25.6449
26.147
26.7339
27.4274
28.256
29.257
30.4808
31.9956
33.8961
36.3156
39.4459
43.5684
49.0982
56.6693
67.247
82.3278
104.296
137.039
187.888
273.83
449.913
993.025
20.1094
20.1185
20.1366
20.1637
20.1999
20.2448
20.2985
20.3605
20.4306
20.5084
20.5936
20.6859
20.7848
20.8901
21.0012
21.1178
21.2397
21.3664
21.4977
21.6332
21.7727
21.9163
22.0638
22.2156
22.3719
22.5331
22.6998
22.8729
23.0534
23.2425
23.4423
23.6548
23.8831
24.1306
24.4016
24.7014