/*--------------------------------*- C++ -*----------------------------------*\
| =========                 |                                                 |
| \\      /  F ield         | OpenFOAM: The Open Source CFD Toolbox           |
|  \\    /   O peration     | Version:  v1906                                 |
|   \\  /    A nd           | Web:      www.OpenFOAM.com                      |
|    \\/     M anipulation  |                                                 |
\*---------------------------------------------------------------------------*/
FoamFile
{
    version     2.0;
    format      ascii;
    class       volScalarField;
    location    "2.83";
    object      G;
}
// * * * * * * * * * * * * * * * * * * * * * * * * * * * * * * * * * * * * * //

dimensions      [1 0 -3 0 0 0 0];


internalField   nonuniform List<scalar> 
26400
(
1.68982e+06
1.68979e+06
1.68972e+06
1.68961e+06
1.68947e+06
1.68929e+06
1.68909e+06
1.68884e+06
1.68857e+06
1.68828e+06
1.68794e+06
1.68757e+06
1.68716e+06
1.68674e+06
1.6863e+06
1.6858e+06
1.68528e+06
1.68473e+06
1.68413e+06
1.68347e+06
1.6828e+06
1.6821e+06
1.68138e+06
1.68058e+06
1.67975e+06
1.67891e+06
1.67801e+06
1.67707e+06
1.67611e+06
1.67511e+06
1.6741e+06
1.67302e+06
1.67186e+06
1.67067e+06
1.66947e+06
1.66819e+06
1.66683e+06
1.66545e+06
1.66402e+06
1.66259e+06
1.6611e+06
1.65953e+06
1.65792e+06
1.65629e+06
1.6546e+06
1.65288e+06
1.65112e+06
1.6493e+06
1.64742e+06
1.64547e+06
1.64351e+06
1.6415e+06
1.63945e+06
1.63736e+06
1.63524e+06
1.6331e+06
1.63096e+06
1.62885e+06
1.62681e+06
1.6249e+06
1.67253e+06
1.67249e+06
1.67243e+06
1.67234e+06
1.6722e+06
1.67205e+06
1.67185e+06
1.67162e+06
1.67137e+06
1.67108e+06
1.67075e+06
1.67039e+06
1.67001e+06
1.6696e+06
1.66914e+06
1.66864e+06
1.66811e+06
1.66754e+06
1.66694e+06
1.6663e+06
1.66562e+06
1.66493e+06
1.66419e+06
1.66341e+06
1.66263e+06
1.66181e+06
1.66094e+06
1.66003e+06
1.65909e+06
1.65812e+06
1.65711e+06
1.65604e+06
1.65496e+06
1.65386e+06
1.6527e+06
1.65152e+06
1.65033e+06
1.64904e+06
1.64769e+06
1.64631e+06
1.6449e+06
1.64349e+06
1.64206e+06
1.64055e+06
1.63901e+06
1.63747e+06
1.63589e+06
1.63425e+06
1.63257e+06
1.6309e+06
1.62922e+06
1.62752e+06
1.6258e+06
1.62407e+06
1.62233e+06
1.62059e+06
1.61886e+06
1.61713e+06
1.61543e+06
1.61376e+06
1.65626e+06
1.65623e+06
1.65618e+06
1.6561e+06
1.656e+06
1.65586e+06
1.65568e+06
1.65547e+06
1.65522e+06
1.65494e+06
1.65461e+06
1.65427e+06
1.6539e+06
1.65348e+06
1.65302e+06
1.65253e+06
1.65201e+06
1.65146e+06
1.65087e+06
1.65026e+06
1.64963e+06
1.64898e+06
1.64828e+06
1.64756e+06
1.64679e+06
1.64598e+06
1.64514e+06
1.64428e+06
1.64338e+06
1.64244e+06
1.64148e+06
1.64049e+06
1.63946e+06
1.63841e+06
1.63733e+06
1.6362e+06
1.63498e+06
1.63372e+06
1.63248e+06
1.63121e+06
1.62992e+06
1.62861e+06
1.62725e+06
1.62585e+06
1.62444e+06
1.62299e+06
1.62154e+06
1.62007e+06
1.61858e+06
1.61708e+06
1.61555e+06
1.61401e+06
1.61245e+06
1.61088e+06
1.6093e+06
1.6077e+06
1.6061e+06
1.6045e+06
1.60289e+06
1.60128e+06
1.64119e+06
1.64116e+06
1.64109e+06
1.64099e+06
1.64087e+06
1.64072e+06
1.64053e+06
1.6403e+06
1.64004e+06
1.63976e+06
1.63944e+06
1.6391e+06
1.63872e+06
1.63831e+06
1.63788e+06
1.63742e+06
1.63694e+06
1.63642e+06
1.63587e+06
1.6353e+06
1.6347e+06
1.63406e+06
1.63338e+06
1.63268e+06
1.63193e+06
1.63117e+06
1.63038e+06
1.62956e+06
1.6287e+06
1.6278e+06
1.62689e+06
1.62594e+06
1.62495e+06
1.62391e+06
1.62283e+06
1.62172e+06
1.62058e+06
1.61943e+06
1.61829e+06
1.6171e+06
1.61588e+06
1.61466e+06
1.61338e+06
1.61204e+06
1.6107e+06
1.60938e+06
1.608e+06
1.60659e+06
1.60519e+06
1.60378e+06
1.60236e+06
1.60091e+06
1.59945e+06
1.59796e+06
1.59646e+06
1.59495e+06
1.59341e+06
1.59187e+06
1.59031e+06
1.58874e+06
1.62703e+06
1.62699e+06
1.62692e+06
1.62682e+06
1.62669e+06
1.62653e+06
1.62633e+06
1.6261e+06
1.62585e+06
1.62557e+06
1.62527e+06
1.62493e+06
1.62458e+06
1.6242e+06
1.62377e+06
1.62331e+06
1.62283e+06
1.62234e+06
1.62181e+06
1.62125e+06
1.62067e+06
1.62006e+06
1.6194e+06
1.6187e+06
1.61798e+06
1.61724e+06
1.61645e+06
1.61565e+06
1.61482e+06
1.61396e+06
1.61309e+06
1.61216e+06
1.61122e+06
1.61022e+06
1.60922e+06
1.6082e+06
1.60713e+06
1.60607e+06
1.60496e+06
1.60383e+06
1.60268e+06
1.6015e+06
1.60027e+06
1.59897e+06
1.59768e+06
1.5964e+06
1.59509e+06
1.59379e+06
1.59246e+06
1.59111e+06
1.58975e+06
1.58836e+06
1.58695e+06
1.58552e+06
1.58407e+06
1.58261e+06
1.58112e+06
1.57962e+06
1.5781e+06
1.57656e+06
1.61361e+06
1.61358e+06
1.61351e+06
1.61342e+06
1.6133e+06
1.61315e+06
1.61297e+06
1.61276e+06
1.61253e+06
1.61228e+06
1.612e+06
1.61168e+06
1.61134e+06
1.61095e+06
1.61053e+06
1.61009e+06
1.60964e+06
1.60916e+06
1.60865e+06
1.60811e+06
1.60752e+06
1.60689e+06
1.60623e+06
1.60558e+06
1.60491e+06
1.60421e+06
1.60347e+06
1.6027e+06
1.60192e+06
1.60109e+06
1.60025e+06
1.59938e+06
1.59845e+06
1.5975e+06
1.59656e+06
1.59555e+06
1.59451e+06
1.59348e+06
1.59241e+06
1.59132e+06
1.5902e+06
1.58904e+06
1.58784e+06
1.58665e+06
1.58545e+06
1.58417e+06
1.58291e+06
1.58167e+06
1.58039e+06
1.57909e+06
1.57776e+06
1.57641e+06
1.57505e+06
1.57366e+06
1.57225e+06
1.57082e+06
1.56937e+06
1.5679e+06
1.56641e+06
1.5649e+06
1.60108e+06
1.60105e+06
1.601e+06
1.60092e+06
1.60081e+06
1.60068e+06
1.60052e+06
1.60032e+06
1.60011e+06
1.59987e+06
1.5996e+06
1.59929e+06
1.59895e+06
1.59859e+06
1.5982e+06
1.59778e+06
1.59734e+06
1.59686e+06
1.59636e+06
1.59582e+06
1.59525e+06
1.59466e+06
1.59405e+06
1.59345e+06
1.59279e+06
1.59208e+06
1.59135e+06
1.5906e+06
1.58983e+06
1.58904e+06
1.58823e+06
1.58738e+06
1.58651e+06
1.58561e+06
1.58466e+06
1.58366e+06
1.58267e+06
1.58167e+06
1.58065e+06
1.57959e+06
1.57849e+06
1.57738e+06
1.57625e+06
1.57509e+06
1.57389e+06
1.57268e+06
1.57148e+06
1.57026e+06
1.56899e+06
1.56768e+06
1.5664e+06
1.56509e+06
1.56376e+06
1.56241e+06
1.56103e+06
1.55963e+06
1.55821e+06
1.55678e+06
1.55532e+06
1.55384e+06
1.58944e+06
1.58942e+06
1.58938e+06
1.5893e+06
1.58919e+06
1.58906e+06
1.58889e+06
1.5887e+06
1.58849e+06
1.58825e+06
1.58799e+06
1.5877e+06
1.58739e+06
1.58705e+06
1.58667e+06
1.58626e+06
1.58582e+06
1.58535e+06
1.58486e+06
1.58435e+06
1.5838e+06
1.58324e+06
1.58267e+06
1.58204e+06
1.58139e+06
1.58073e+06
1.58e+06
1.57925e+06
1.57852e+06
1.57777e+06
1.577e+06
1.57618e+06
1.5753e+06
1.57439e+06
1.57346e+06
1.57254e+06
1.57158e+06
1.57058e+06
1.56958e+06
1.56852e+06
1.56744e+06
1.56638e+06
1.56527e+06
1.56414e+06
1.56299e+06
1.56184e+06
1.56067e+06
1.55947e+06
1.55825e+06
1.557e+06
1.55574e+06
1.55445e+06
1.55315e+06
1.55182e+06
1.55047e+06
1.5491e+06
1.54771e+06
1.5463e+06
1.54486e+06
1.54341e+06
1.57861e+06
1.57858e+06
1.57853e+06
1.57844e+06
1.57835e+06
1.57822e+06
1.57807e+06
1.5779e+06
1.57769e+06
1.57746e+06
1.5772e+06
1.5769e+06
1.57659e+06
1.57624e+06
1.57585e+06
1.57544e+06
1.57501e+06
1.57456e+06
1.5741e+06
1.57361e+06
1.5731e+06
1.57256e+06
1.57198e+06
1.57136e+06
1.57073e+06
1.57007e+06
1.56939e+06
1.5687e+06
1.56796e+06
1.56721e+06
1.56643e+06
1.56561e+06
1.56477e+06
1.56388e+06
1.56298e+06
1.56209e+06
1.56116e+06
1.56022e+06
1.55924e+06
1.55822e+06
1.55719e+06
1.55615e+06
1.55506e+06
1.55396e+06
1.55285e+06
1.55172e+06
1.55059e+06
1.54942e+06
1.54819e+06
1.54695e+06
1.54571e+06
1.54446e+06
1.54318e+06
1.54188e+06
1.54055e+06
1.53921e+06
1.53784e+06
1.53646e+06
1.53505e+06
1.53363e+06
1.5686e+06
1.56857e+06
1.56851e+06
1.56843e+06
1.56834e+06
1.56821e+06
1.56806e+06
1.56786e+06
1.56764e+06
1.5674e+06
1.56714e+06
1.56684e+06
1.56653e+06
1.56618e+06
1.56581e+06
1.56542e+06
1.56502e+06
1.5646e+06
1.56415e+06
1.56367e+06
1.56317e+06
1.56266e+06
1.5621e+06
1.5615e+06
1.56089e+06
1.56026e+06
1.55962e+06
1.55893e+06
1.55821e+06
1.55746e+06
1.55669e+06
1.55589e+06
1.55506e+06
1.55421e+06
1.55333e+06
1.55242e+06
1.55149e+06
1.55055e+06
1.54961e+06
1.54864e+06
1.54766e+06
1.54664e+06
1.54559e+06
1.54452e+06
1.54341e+06
1.54226e+06
1.54109e+06
1.5399e+06
1.53872e+06
1.53754e+06
1.53633e+06
1.5351e+06
1.53385e+06
1.53258e+06
1.53129e+06
1.52997e+06
1.52863e+06
1.52727e+06
1.52589e+06
1.52449e+06
1.55931e+06
1.55928e+06
1.55923e+06
1.55915e+06
1.55904e+06
1.5589e+06
1.55874e+06
1.55855e+06
1.55835e+06
1.55813e+06
1.55787e+06
1.5576e+06
1.55729e+06
1.55696e+06
1.5566e+06
1.55623e+06
1.55584e+06
1.55542e+06
1.55497e+06
1.5545e+06
1.554e+06
1.55348e+06
1.55292e+06
1.55234e+06
1.55174e+06
1.55113e+06
1.55048e+06
1.5498e+06
1.5491e+06
1.54836e+06
1.54761e+06
1.54683e+06
1.54603e+06
1.54521e+06
1.54436e+06
1.54349e+06
1.5426e+06
1.54169e+06
1.54075e+06
1.53977e+06
1.53875e+06
1.53773e+06
1.53669e+06
1.53561e+06
1.53455e+06
1.53345e+06
1.53232e+06
1.53116e+06
1.53001e+06
1.52885e+06
1.52766e+06
1.52645e+06
1.52522e+06
1.52397e+06
1.52269e+06
1.52139e+06
1.52008e+06
1.51874e+06
1.51738e+06
1.516e+06
1.55074e+06
1.55071e+06
1.55067e+06
1.55059e+06
1.55048e+06
1.55035e+06
1.55019e+06
1.55002e+06
1.54982e+06
1.54958e+06
1.54933e+06
1.54906e+06
1.54876e+06
1.54843e+06
1.54808e+06
1.54772e+06
1.54733e+06
1.54691e+06
1.54646e+06
1.54599e+06
1.5455e+06
1.54499e+06
1.54444e+06
1.54387e+06
1.5433e+06
1.5427e+06
1.54206e+06
1.54139e+06
1.54069e+06
1.53997e+06
1.53926e+06
1.53849e+06
1.53771e+06
1.5369e+06
1.53605e+06
1.53519e+06
1.53431e+06
1.53339e+06
1.53246e+06
1.5315e+06
1.53052e+06
1.52952e+06
1.52851e+06
1.52747e+06
1.52642e+06
1.52534e+06
1.52423e+06
1.52311e+06
1.52198e+06
1.52084e+06
1.51965e+06
1.51843e+06
1.51722e+06
1.51599e+06
1.51474e+06
1.51346e+06
1.51217e+06
1.51085e+06
1.50952e+06
1.50816e+06
1.54287e+06
1.54284e+06
1.54279e+06
1.54271e+06
1.54261e+06
1.54249e+06
1.54233e+06
1.54215e+06
1.54195e+06
1.54173e+06
1.54148e+06
1.5412e+06
1.54091e+06
1.54059e+06
1.54025e+06
1.53988e+06
1.53949e+06
1.53908e+06
1.53864e+06
1.53816e+06
1.53768e+06
1.53718e+06
1.53664e+06
1.53609e+06
1.53552e+06
1.53492e+06
1.53428e+06
1.53363e+06
1.53295e+06
1.53224e+06
1.53154e+06
1.53079e+06
1.53002e+06
1.52923e+06
1.5284e+06
1.52755e+06
1.52668e+06
1.5258e+06
1.52487e+06
1.52391e+06
1.52294e+06
1.52195e+06
1.52096e+06
1.51994e+06
1.5189e+06
1.51784e+06
1.51676e+06
1.51566e+06
1.51454e+06
1.51341e+06
1.51225e+06
1.51107e+06
1.50988e+06
1.50866e+06
1.50743e+06
1.50617e+06
1.50489e+06
1.5036e+06
1.50228e+06
1.50095e+06
1.53563e+06
1.53561e+06
1.53555e+06
1.53548e+06
1.53539e+06
1.53527e+06
1.53513e+06
1.53497e+06
1.53478e+06
1.53456e+06
1.53431e+06
1.53405e+06
1.53376e+06
1.53344e+06
1.5331e+06
1.53274e+06
1.53236e+06
1.53195e+06
1.53151e+06
1.53105e+06
1.53056e+06
1.53006e+06
1.52953e+06
1.52899e+06
1.52842e+06
1.52781e+06
1.52719e+06
1.52655e+06
1.52588e+06
1.5252e+06
1.5245e+06
1.52377e+06
1.52301e+06
1.52223e+06
1.52142e+06
1.52058e+06
1.5197e+06
1.51879e+06
1.51788e+06
1.51696e+06
1.51603e+06
1.51509e+06
1.51407e+06
1.51302e+06
1.51199e+06
1.51095e+06
1.50989e+06
1.50882e+06
1.50772e+06
1.50661e+06
1.50547e+06
1.50431e+06
1.50313e+06
1.50194e+06
1.50072e+06
1.49948e+06
1.49822e+06
1.49694e+06
1.49565e+06
1.49434e+06
1.52909e+06
1.52906e+06
1.52901e+06
1.52894e+06
1.52885e+06
1.52873e+06
1.5286e+06
1.52843e+06
1.52824e+06
1.52802e+06
1.52779e+06
1.52753e+06
1.52724e+06
1.52693e+06
1.5266e+06
1.52625e+06
1.52587e+06
1.52546e+06
1.52503e+06
1.5246e+06
1.52413e+06
1.52362e+06
1.52309e+06
1.52255e+06
1.52198e+06
1.52138e+06
1.52078e+06
1.52014e+06
1.51946e+06
1.51877e+06
1.51808e+06
1.51734e+06
1.51659e+06
1.51582e+06
1.51502e+06
1.51418e+06
1.5133e+06
1.51242e+06
1.51154e+06
1.51063e+06
1.50968e+06
1.50871e+06
1.50769e+06
1.50667e+06
1.50566e+06
1.50466e+06
1.50363e+06
1.50257e+06
1.5015e+06
1.5004e+06
1.49928e+06
1.49814e+06
1.49698e+06
1.4958e+06
1.4946e+06
1.49338e+06
1.49214e+06
1.49088e+06
1.4896e+06
1.48831e+06
1.52321e+06
1.52319e+06
1.52314e+06
1.52308e+06
1.52298e+06
1.52286e+06
1.52272e+06
1.52256e+06
1.52237e+06
1.52216e+06
1.52192e+06
1.52166e+06
1.52137e+06
1.52106e+06
1.52074e+06
1.52039e+06
1.51999e+06
1.51958e+06
1.51916e+06
1.51871e+06
1.51823e+06
1.51773e+06
1.51721e+06
1.51667e+06
1.51611e+06
1.51553e+06
1.51492e+06
1.51427e+06
1.51361e+06
1.51293e+06
1.51225e+06
1.51152e+06
1.51076e+06
1.50999e+06
1.5092e+06
1.50837e+06
1.50753e+06
1.50667e+06
1.50578e+06
1.50486e+06
1.50393e+06
1.50298e+06
1.50201e+06
1.50104e+06
1.50005e+06
1.49904e+06
1.49801e+06
1.49696e+06
1.49589e+06
1.4948e+06
1.49369e+06
1.49256e+06
1.49141e+06
1.49024e+06
1.48905e+06
1.48785e+06
1.48663e+06
1.48538e+06
1.48412e+06
1.48285e+06
1.51802e+06
1.518e+06
1.51796e+06
1.51789e+06
1.51779e+06
1.51768e+06
1.51754e+06
1.51737e+06
1.51718e+06
1.51696e+06
1.51671e+06
1.51644e+06
1.51616e+06
1.51585e+06
1.51552e+06
1.51516e+06
1.51479e+06
1.51439e+06
1.51396e+06
1.51352e+06
1.51305e+06
1.51255e+06
1.51203e+06
1.51148e+06
1.51093e+06
1.51035e+06
1.50973e+06
1.50907e+06
1.50842e+06
1.50776e+06
1.50707e+06
1.50636e+06
1.50561e+06
1.50484e+06
1.50405e+06
1.50324e+06
1.5024e+06
1.50155e+06
1.50067e+06
1.49976e+06
1.49885e+06
1.49793e+06
1.49696e+06
1.49598e+06
1.495e+06
1.49399e+06
1.49296e+06
1.49191e+06
1.49084e+06
1.48974e+06
1.48864e+06
1.48752e+06
1.48638e+06
1.48523e+06
1.48405e+06
1.48286e+06
1.48165e+06
1.48043e+06
1.47918e+06
1.47793e+06
1.5135e+06
1.51348e+06
1.51343e+06
1.51336e+06
1.51326e+06
1.51314e+06
1.513e+06
1.51283e+06
1.51263e+06
1.51241e+06
1.51217e+06
1.51191e+06
1.51162e+06
1.51132e+06
1.51098e+06
1.51061e+06
1.51023e+06
1.50983e+06
1.50939e+06
1.50893e+06
1.50845e+06
1.50796e+06
1.50745e+06
1.50692e+06
1.50636e+06
1.50577e+06
1.50516e+06
1.50453e+06
1.50388e+06
1.5032e+06
1.50252e+06
1.5018e+06
1.50106e+06
1.50029e+06
1.49949e+06
1.49867e+06
1.49782e+06
1.49697e+06
1.4961e+06
1.49521e+06
1.49429e+06
1.49338e+06
1.49245e+06
1.49146e+06
1.49045e+06
1.48941e+06
1.48835e+06
1.48733e+06
1.48629e+06
1.48519e+06
1.48407e+06
1.48297e+06
1.48185e+06
1.48071e+06
1.47955e+06
1.47838e+06
1.47719e+06
1.47598e+06
1.47475e+06
1.47351e+06
1.50961e+06
1.50959e+06
1.50954e+06
1.50946e+06
1.50937e+06
1.50924e+06
1.5091e+06
1.50892e+06
1.50873e+06
1.50851e+06
1.50827e+06
1.50799e+06
1.5077e+06
1.50739e+06
1.50704e+06
1.50668e+06
1.5063e+06
1.50589e+06
1.50545e+06
1.505e+06
1.50454e+06
1.50405e+06
1.50351e+06
1.50294e+06
1.50237e+06
1.50178e+06
1.50118e+06
1.50055e+06
1.49989e+06
1.49921e+06
1.49852e+06
1.4978e+06
1.49704e+06
1.49626e+06
1.49547e+06
1.49466e+06
1.49382e+06
1.49296e+06
1.49207e+06
1.49117e+06
1.49025e+06
1.48931e+06
1.48836e+06
1.48738e+06
1.48638e+06
1.48538e+06
1.48436e+06
1.48333e+06
1.48227e+06
1.4812e+06
1.4801e+06
1.47898e+06
1.47786e+06
1.47672e+06
1.47557e+06
1.47441e+06
1.47322e+06
1.47203e+06
1.47081e+06
1.46959e+06
1.50639e+06
1.50637e+06
1.50632e+06
1.50625e+06
1.50615e+06
1.50602e+06
1.50587e+06
1.5057e+06
1.5055e+06
1.50528e+06
1.50502e+06
1.50474e+06
1.50444e+06
1.50413e+06
1.50379e+06
1.50342e+06
1.50303e+06
1.50262e+06
1.50219e+06
1.50173e+06
1.50124e+06
1.50072e+06
1.50017e+06
1.49962e+06
1.49905e+06
1.49846e+06
1.49784e+06
1.4972e+06
1.49654e+06
1.49585e+06
1.49515e+06
1.4944e+06
1.49364e+06
1.49289e+06
1.49209e+06
1.49127e+06
1.49041e+06
1.48951e+06
1.48863e+06
1.48771e+06
1.48675e+06
1.48581e+06
1.48486e+06
1.48388e+06
1.48289e+06
1.48187e+06
1.48084e+06
1.4798e+06
1.47873e+06
1.47765e+06
1.47656e+06
1.47545e+06
1.47432e+06
1.47319e+06
1.47204e+06
1.47087e+06
1.46969e+06
1.4685e+06
1.4673e+06
1.46609e+06
1.50378e+06
1.50375e+06
1.5037e+06
1.50362e+06
1.50352e+06
1.50339e+06
1.50324e+06
1.50306e+06
1.50286e+06
1.50262e+06
1.50236e+06
1.50209e+06
1.50179e+06
1.50146e+06
1.5011e+06
1.50073e+06
1.50033e+06
1.4999e+06
1.49946e+06
1.49899e+06
1.4985e+06
1.49797e+06
1.49742e+06
1.49685e+06
1.49628e+06
1.49568e+06
1.49506e+06
1.49441e+06
1.49373e+06
1.49301e+06
1.49229e+06
1.49154e+06
1.49076e+06
1.48995e+06
1.48911e+06
1.48827e+06
1.4874e+06
1.4865e+06
1.48559e+06
1.48466e+06
1.48371e+06
1.48273e+06
1.48173e+06
1.48073e+06
1.47972e+06
1.47869e+06
1.47762e+06
1.47654e+06
1.47545e+06
1.47435e+06
1.47325e+06
1.47212e+06
1.47098e+06
1.46983e+06
1.46866e+06
1.46748e+06
1.46629e+06
1.46509e+06
1.46387e+06
1.46255e+06
1.50196e+06
1.50194e+06
1.50188e+06
1.5018e+06
1.5017e+06
1.50157e+06
1.50141e+06
1.50123e+06
1.50101e+06
1.50078e+06
1.50052e+06
1.50022e+06
1.4999e+06
1.49955e+06
1.49919e+06
1.49881e+06
1.4984e+06
1.49796e+06
1.49751e+06
1.49702e+06
1.49651e+06
1.49598e+06
1.49542e+06
1.49484e+06
1.49423e+06
1.49359e+06
1.49293e+06
1.49225e+06
1.49155e+06
1.49083e+06
1.49009e+06
1.48932e+06
1.48852e+06
1.48769e+06
1.48683e+06
1.48597e+06
1.48507e+06
1.48415e+06
1.48321e+06
1.48226e+06
1.48128e+06
1.48027e+06
1.47924e+06
1.47819e+06
1.47711e+06
1.47602e+06
1.47494e+06
1.47386e+06
1.47275e+06
1.47162e+06
1.47046e+06
1.4693e+06
1.46813e+06
1.46694e+06
1.46574e+06
1.46452e+06
1.46328e+06
1.46204e+06
1.46078e+06
1.4594e+06
1.5009e+06
1.50087e+06
1.50082e+06
1.50073e+06
1.50063e+06
1.50049e+06
1.50032e+06
1.50013e+06
1.49991e+06
1.49967e+06
1.4994e+06
1.49911e+06
1.49878e+06
1.49843e+06
1.49805e+06
1.49766e+06
1.49723e+06
1.49678e+06
1.49631e+06
1.49581e+06
1.49528e+06
1.49473e+06
1.49414e+06
1.49354e+06
1.49292e+06
1.49228e+06
1.49161e+06
1.49091e+06
1.49019e+06
1.48945e+06
1.48869e+06
1.48787e+06
1.48702e+06
1.48618e+06
1.4853e+06
1.4844e+06
1.48344e+06
1.48249e+06
1.48154e+06
1.48057e+06
1.47955e+06
1.4785e+06
1.47744e+06
1.47636e+06
1.47528e+06
1.47417e+06
1.47305e+06
1.47192e+06
1.47078e+06
1.4696e+06
1.46841e+06
1.46721e+06
1.466e+06
1.46477e+06
1.46352e+06
1.46226e+06
1.46098e+06
1.45969e+06
1.45838e+06
1.45703e+06
1.50047e+06
1.50045e+06
1.50039e+06
1.50031e+06
1.5002e+06
1.50006e+06
1.49989e+06
1.4997e+06
1.49947e+06
1.49923e+06
1.49895e+06
1.49863e+06
1.49831e+06
1.49796e+06
1.49757e+06
1.49714e+06
1.4967e+06
1.49624e+06
1.49576e+06
1.49526e+06
1.49472e+06
1.49415e+06
1.49356e+06
1.49293e+06
1.49229e+06
1.49164e+06
1.49093e+06
1.49019e+06
1.48944e+06
1.48866e+06
1.48787e+06
1.48704e+06
1.48618e+06
1.48529e+06
1.48439e+06
1.48345e+06
1.48248e+06
1.48151e+06
1.48053e+06
1.47953e+06
1.47849e+06
1.47744e+06
1.47634e+06
1.47522e+06
1.47408e+06
1.47293e+06
1.47178e+06
1.47061e+06
1.46941e+06
1.4682e+06
1.46697e+06
1.46574e+06
1.46448e+06
1.46321e+06
1.46193e+06
1.46063e+06
1.45931e+06
1.45798e+06
1.45664e+06
1.4552e+06
1.50063e+06
1.5006e+06
1.50054e+06
1.50045e+06
1.50033e+06
1.50019e+06
1.50002e+06
1.49983e+06
1.49961e+06
1.49935e+06
1.49907e+06
1.49876e+06
1.49842e+06
1.49805e+06
1.49765e+06
1.49723e+06
1.49678e+06
1.4963e+06
1.49579e+06
1.49525e+06
1.49471e+06
1.49414e+06
1.49353e+06
1.49286e+06
1.49219e+06
1.49151e+06
1.49079e+06
1.49004e+06
1.48926e+06
1.48846e+06
1.48765e+06
1.48679e+06
1.48589e+06
1.48497e+06
1.48405e+06
1.48312e+06
1.48212e+06
1.48111e+06
1.48009e+06
1.47904e+06
1.47798e+06
1.47688e+06
1.47574e+06
1.47459e+06
1.4734e+06
1.47222e+06
1.47103e+06
1.46982e+06
1.4686e+06
1.46736e+06
1.46611e+06
1.46483e+06
1.46354e+06
1.46223e+06
1.4609e+06
1.45955e+06
1.4582e+06
1.45682e+06
1.45543e+06
1.45397e+06
1.50129e+06
1.50126e+06
1.5012e+06
1.50111e+06
1.501e+06
1.50085e+06
1.50068e+06
1.50047e+06
1.50023e+06
1.49998e+06
1.49969e+06
1.49936e+06
1.499e+06
1.49861e+06
1.4982e+06
1.49777e+06
1.49732e+06
1.49683e+06
1.49632e+06
1.49577e+06
1.4952e+06
1.4946e+06
1.49396e+06
1.4933e+06
1.49262e+06
1.49191e+06
1.49117e+06
1.49039e+06
1.48959e+06
1.48878e+06
1.48794e+06
1.48705e+06
1.48611e+06
1.48518e+06
1.48425e+06
1.48327e+06
1.48224e+06
1.4812e+06
1.48012e+06
1.47904e+06
1.47796e+06
1.47682e+06
1.47565e+06
1.47448e+06
1.47329e+06
1.47208e+06
1.47084e+06
1.46959e+06
1.46831e+06
1.46703e+06
1.46574e+06
1.46442e+06
1.46309e+06
1.46173e+06
1.46036e+06
1.45898e+06
1.45758e+06
1.45616e+06
1.45473e+06
1.45325e+06
1.50237e+06
1.50234e+06
1.50228e+06
1.50219e+06
1.50208e+06
1.50193e+06
1.50175e+06
1.50154e+06
1.5013e+06
1.50104e+06
1.50073e+06
1.5004e+06
1.50005e+06
1.49966e+06
1.49923e+06
1.49879e+06
1.49831e+06
1.49781e+06
1.49729e+06
1.49673e+06
1.49614e+06
1.49552e+06
1.49488e+06
1.4942e+06
1.49348e+06
1.49275e+06
1.49198e+06
1.49119e+06
1.49037e+06
1.48952e+06
1.48864e+06
1.48772e+06
1.4868e+06
1.48584e+06
1.48487e+06
1.48387e+06
1.48283e+06
1.48177e+06
1.48067e+06
1.47952e+06
1.47839e+06
1.47721e+06
1.47602e+06
1.47483e+06
1.4736e+06
1.47235e+06
1.47108e+06
1.4698e+06
1.46847e+06
1.46714e+06
1.4658e+06
1.46445e+06
1.46308e+06
1.46168e+06
1.46027e+06
1.45885e+06
1.45741e+06
1.45595e+06
1.45447e+06
1.45296e+06
1.50385e+06
1.50381e+06
1.50375e+06
1.50366e+06
1.50353e+06
1.50338e+06
1.5032e+06
1.50299e+06
1.50274e+06
1.50246e+06
1.50214e+06
1.5018e+06
1.50143e+06
1.50105e+06
1.50062e+06
1.50015e+06
1.49966e+06
1.49914e+06
1.49859e+06
1.49803e+06
1.49743e+06
1.49681e+06
1.49616e+06
1.49548e+06
1.49476e+06
1.49401e+06
1.49323e+06
1.49242e+06
1.49157e+06
1.49069e+06
1.4898e+06
1.48885e+06
1.48786e+06
1.48686e+06
1.48588e+06
1.48484e+06
1.48378e+06
1.48269e+06
1.48156e+06
1.48042e+06
1.47926e+06
1.47806e+06
1.47684e+06
1.47559e+06
1.47433e+06
1.47305e+06
1.47171e+06
1.47037e+06
1.46903e+06
1.46767e+06
1.46629e+06
1.46489e+06
1.46348e+06
1.46204e+06
1.46059e+06
1.45912e+06
1.45764e+06
1.45614e+06
1.45463e+06
1.45301e+06
1.50563e+06
1.50559e+06
1.50553e+06
1.50544e+06
1.50532e+06
1.50516e+06
1.50498e+06
1.50476e+06
1.50452e+06
1.50424e+06
1.50393e+06
1.50358e+06
1.5032e+06
1.50278e+06
1.50235e+06
1.5019e+06
1.5014e+06
1.50087e+06
1.50031e+06
1.49972e+06
1.49911e+06
1.49847e+06
1.4978e+06
1.49709e+06
1.49635e+06
1.49558e+06
1.49479e+06
1.49397e+06
1.49311e+06
1.4922e+06
1.49128e+06
1.4903e+06
1.48928e+06
1.48828e+06
1.48727e+06
1.4862e+06
1.48511e+06
1.484e+06
1.48284e+06
1.48166e+06
1.48045e+06
1.47919e+06
1.47794e+06
1.47668e+06
1.47538e+06
1.47404e+06
1.47268e+06
1.4713e+06
1.46991e+06
1.46852e+06
1.46711e+06
1.46567e+06
1.46422e+06
1.46274e+06
1.46125e+06
1.45974e+06
1.45822e+06
1.45668e+06
1.45512e+06
1.45352e+06
1.50774e+06
1.50771e+06
1.50764e+06
1.50755e+06
1.50742e+06
1.50726e+06
1.50707e+06
1.50685e+06
1.50659e+06
1.5063e+06
1.50599e+06
1.50564e+06
1.50525e+06
1.50483e+06
1.50439e+06
1.50392e+06
1.50342e+06
1.50288e+06
1.50232e+06
1.50172e+06
1.50109e+06
1.50043e+06
1.49974e+06
1.49902e+06
1.49826e+06
1.49745e+06
1.49663e+06
1.49578e+06
1.49491e+06
1.49399e+06
1.49305e+06
1.49206e+06
1.49105e+06
1.49001e+06
1.48896e+06
1.48788e+06
1.48676e+06
1.48559e+06
1.48442e+06
1.48322e+06
1.48194e+06
1.48067e+06
1.47941e+06
1.4781e+06
1.47674e+06
1.47536e+06
1.47397e+06
1.47257e+06
1.47116e+06
1.46973e+06
1.46828e+06
1.46678e+06
1.46527e+06
1.46376e+06
1.46223e+06
1.46069e+06
1.45912e+06
1.45754e+06
1.45594e+06
1.45429e+06
1.5101e+06
1.51007e+06
1.51e+06
1.5099e+06
1.50977e+06
1.5096e+06
1.50941e+06
1.50918e+06
1.50892e+06
1.50862e+06
1.5083e+06
1.50794e+06
1.50755e+06
1.50714e+06
1.50669e+06
1.5062e+06
1.50569e+06
1.50515e+06
1.50457e+06
1.50396e+06
1.50332e+06
1.50263e+06
1.50192e+06
1.50118e+06
1.50041e+06
1.49959e+06
1.49875e+06
1.49788e+06
1.49699e+06
1.49606e+06
1.4951e+06
1.49409e+06
1.49306e+06
1.49201e+06
1.49093e+06
1.4898e+06
1.48866e+06
1.48749e+06
1.48626e+06
1.48501e+06
1.48374e+06
1.48244e+06
1.48113e+06
1.47977e+06
1.47839e+06
1.477e+06
1.47556e+06
1.47413e+06
1.47269e+06
1.47119e+06
1.46967e+06
1.46816e+06
1.46663e+06
1.46508e+06
1.46351e+06
1.46192e+06
1.46032e+06
1.45869e+06
1.45706e+06
1.45539e+06
1.51267e+06
1.51264e+06
1.51258e+06
1.51248e+06
1.51234e+06
1.51217e+06
1.51196e+06
1.51173e+06
1.51147e+06
1.51117e+06
1.51084e+06
1.51047e+06
1.51007e+06
1.50965e+06
1.50919e+06
1.50871e+06
1.50819e+06
1.50764e+06
1.50706e+06
1.50645e+06
1.50578e+06
1.50507e+06
1.50434e+06
1.50359e+06
1.50281e+06
1.50199e+06
1.50113e+06
1.50025e+06
1.49933e+06
1.49839e+06
1.49742e+06
1.4964e+06
1.49535e+06
1.49423e+06
1.49308e+06
1.49193e+06
1.49076e+06
1.48954e+06
1.48832e+06
1.48706e+06
1.48575e+06
1.48442e+06
1.48306e+06
1.48169e+06
1.4803e+06
1.47889e+06
1.47745e+06
1.47599e+06
1.47447e+06
1.47292e+06
1.47137e+06
1.46981e+06
1.46824e+06
1.46665e+06
1.46504e+06
1.46342e+06
1.46177e+06
1.46011e+06
1.45843e+06
1.45672e+06
1.51543e+06
1.5154e+06
1.51533e+06
1.51523e+06
1.51509e+06
1.51493e+06
1.51472e+06
1.51448e+06
1.51422e+06
1.51391e+06
1.51357e+06
1.5132e+06
1.51279e+06
1.51236e+06
1.51189e+06
1.51138e+06
1.51086e+06
1.51029e+06
1.5097e+06
1.50909e+06
1.50842e+06
1.50772e+06
1.50699e+06
1.50623e+06
1.50544e+06
1.50459e+06
1.50371e+06
1.50282e+06
1.50189e+06
1.50093e+06
1.49995e+06
1.49891e+06
1.49784e+06
1.49672e+06
1.49555e+06
1.49439e+06
1.49318e+06
1.49193e+06
1.49064e+06
1.48932e+06
1.48799e+06
1.48664e+06
1.48525e+06
1.48382e+06
1.48239e+06
1.48095e+06
1.47949e+06
1.47798e+06
1.47643e+06
1.47487e+06
1.4733e+06
1.47171e+06
1.4701e+06
1.46847e+06
1.46682e+06
1.46515e+06
1.46346e+06
1.46175e+06
1.46003e+06
1.4583e+06
1.51834e+06
1.51831e+06
1.51823e+06
1.51813e+06
1.518e+06
1.51782e+06
1.51762e+06
1.51738e+06
1.51711e+06
1.51682e+06
1.51648e+06
1.5161e+06
1.51568e+06
1.51524e+06
1.51477e+06
1.51426e+06
1.51371e+06
1.51313e+06
1.51252e+06
1.51189e+06
1.51122e+06
1.51052e+06
1.50978e+06
1.50901e+06
1.5082e+06
1.50735e+06
1.50648e+06
1.50557e+06
1.5046e+06
1.50362e+06
1.50262e+06
1.50156e+06
1.50047e+06
1.49933e+06
1.49814e+06
1.49695e+06
1.49575e+06
1.49447e+06
1.49316e+06
1.49183e+06
1.49042e+06
1.48903e+06
1.48762e+06
1.48617e+06
1.48471e+06
1.48322e+06
1.48172e+06
1.48019e+06
1.47863e+06
1.47705e+06
1.47544e+06
1.47382e+06
1.47217e+06
1.4705e+06
1.46881e+06
1.46709e+06
1.46537e+06
1.46362e+06
1.46185e+06
1.46003e+06
1.52138e+06
1.52135e+06
1.52128e+06
1.52118e+06
1.52104e+06
1.52087e+06
1.52066e+06
1.52041e+06
1.52013e+06
1.51983e+06
1.51949e+06
1.51911e+06
1.5187e+06
1.51825e+06
1.51777e+06
1.51726e+06
1.51672e+06
1.51614e+06
1.51552e+06
1.51487e+06
1.51417e+06
1.51345e+06
1.51271e+06
1.51194e+06
1.51111e+06
1.51025e+06
1.50935e+06
1.50843e+06
1.50747e+06
1.50647e+06
1.50545e+06
1.50437e+06
1.50325e+06
1.50208e+06
1.50089e+06
1.49968e+06
1.49843e+06
1.49714e+06
1.49583e+06
1.49447e+06
1.49305e+06
1.49164e+06
1.49019e+06
1.48871e+06
1.48721e+06
1.48568e+06
1.48414e+06
1.48257e+06
1.48099e+06
1.47938e+06
1.47775e+06
1.47609e+06
1.47441e+06
1.47271e+06
1.47098e+06
1.46924e+06
1.46748e+06
1.4657e+06
1.46391e+06
1.46196e+06
1.52449e+06
1.52446e+06
1.5244e+06
1.5243e+06
1.52416e+06
1.52399e+06
1.52377e+06
1.52352e+06
1.52324e+06
1.52292e+06
1.52257e+06
1.52219e+06
1.52178e+06
1.52133e+06
1.52085e+06
1.52034e+06
1.51978e+06
1.51919e+06
1.51858e+06
1.51793e+06
1.51723e+06
1.51651e+06
1.51575e+06
1.51496e+06
1.51414e+06
1.51327e+06
1.51236e+06
1.51143e+06
1.51048e+06
1.50946e+06
1.50842e+06
1.50732e+06
1.50619e+06
1.505e+06
1.50376e+06
1.50252e+06
1.50126e+06
1.49996e+06
1.4986e+06
1.4972e+06
1.49579e+06
1.49436e+06
1.4929e+06
1.49141e+06
1.48989e+06
1.48834e+06
1.48674e+06
1.48514e+06
1.48352e+06
1.48189e+06
1.48022e+06
1.47853e+06
1.47682e+06
1.47508e+06
1.47332e+06
1.47154e+06
1.46974e+06
1.46792e+06
1.46608e+06
1.46423e+06
1.52768e+06
1.52764e+06
1.52757e+06
1.52747e+06
1.52734e+06
1.52716e+06
1.52695e+06
1.52671e+06
1.52643e+06
1.52611e+06
1.52575e+06
1.52537e+06
1.52495e+06
1.5245e+06
1.52401e+06
1.52349e+06
1.52293e+06
1.52234e+06
1.52172e+06
1.52105e+06
1.52036e+06
1.51963e+06
1.51885e+06
1.51805e+06
1.51722e+06
1.51636e+06
1.51545e+06
1.51449e+06
1.51351e+06
1.51249e+06
1.51143e+06
1.51033e+06
1.5092e+06
1.50804e+06
1.50682e+06
1.50556e+06
1.50425e+06
1.50292e+06
1.50155e+06
1.50009e+06
1.49863e+06
1.49722e+06
1.49575e+06
1.49422e+06
1.49263e+06
1.49106e+06
1.48948e+06
1.48786e+06
1.48621e+06
1.48454e+06
1.48285e+06
1.48113e+06
1.47938e+06
1.47761e+06
1.47582e+06
1.474e+06
1.47217e+06
1.47031e+06
1.46843e+06
1.46653e+06
1.53089e+06
1.53085e+06
1.53078e+06
1.53068e+06
1.53055e+06
1.53038e+06
1.53017e+06
1.52994e+06
1.52966e+06
1.52934e+06
1.52899e+06
1.5286e+06
1.52819e+06
1.52774e+06
1.52725e+06
1.52672e+06
1.52616e+06
1.52556e+06
1.52493e+06
1.52426e+06
1.52356e+06
1.52282e+06
1.52205e+06
1.52124e+06
1.52038e+06
1.5195e+06
1.51859e+06
1.51764e+06
1.51666e+06
1.51562e+06
1.51455e+06
1.51344e+06
1.51231e+06
1.51112e+06
1.50988e+06
1.50863e+06
1.50734e+06
1.50601e+06
1.50461e+06
1.50311e+06
1.50164e+06
1.50018e+06
1.49869e+06
1.49717e+06
1.49559e+06
1.494e+06
1.49239e+06
1.49075e+06
1.48907e+06
1.48736e+06
1.48564e+06
1.48389e+06
1.48211e+06
1.48031e+06
1.47848e+06
1.47663e+06
1.47476e+06
1.47287e+06
1.47095e+06
1.46902e+06
1.53412e+06
1.53408e+06
1.53402e+06
1.53392e+06
1.53377e+06
1.5336e+06
1.53339e+06
1.53315e+06
1.53288e+06
1.53256e+06
1.53222e+06
1.53184e+06
1.53142e+06
1.53097e+06
1.53048e+06
1.52997e+06
1.52941e+06
1.52882e+06
1.5282e+06
1.52753e+06
1.52683e+06
1.52608e+06
1.52529e+06
1.52449e+06
1.52363e+06
1.52272e+06
1.5218e+06
1.52084e+06
1.51985e+06
1.51879e+06
1.51771e+06
1.51659e+06
1.51544e+06
1.51425e+06
1.51301e+06
1.51174e+06
1.51043e+06
1.50908e+06
1.5077e+06
1.50626e+06
1.5048e+06
1.50331e+06
1.50177e+06
1.50023e+06
1.49863e+06
1.497e+06
1.49538e+06
1.49372e+06
1.49204e+06
1.49032e+06
1.48857e+06
1.4868e+06
1.48499e+06
1.48316e+06
1.48131e+06
1.47943e+06
1.47752e+06
1.4756e+06
1.47365e+06
1.47168e+06
1.53738e+06
1.53734e+06
1.53727e+06
1.53716e+06
1.53702e+06
1.53684e+06
1.53663e+06
1.53638e+06
1.53611e+06
1.5358e+06
1.53544e+06
1.53506e+06
1.53465e+06
1.53421e+06
1.53372e+06
1.5332e+06
1.53264e+06
1.53205e+06
1.53143e+06
1.53077e+06
1.53008e+06
1.52934e+06
1.52856e+06
1.52774e+06
1.52689e+06
1.526e+06
1.52507e+06
1.5241e+06
1.5231e+06
1.52204e+06
1.52095e+06
1.51983e+06
1.51867e+06
1.51746e+06
1.51621e+06
1.51494e+06
1.51363e+06
1.51226e+06
1.51085e+06
1.5094e+06
1.50793e+06
1.50645e+06
1.50494e+06
1.50338e+06
1.50176e+06
1.50013e+06
1.49849e+06
1.49682e+06
1.49512e+06
1.49339e+06
1.49163e+06
1.48984e+06
1.48802e+06
1.48617e+06
1.4843e+06
1.4824e+06
1.48047e+06
1.47851e+06
1.47653e+06
1.47453e+06
1.54071e+06
1.54067e+06
1.54061e+06
1.54051e+06
1.54037e+06
1.5402e+06
1.53998e+06
1.53973e+06
1.53945e+06
1.53915e+06
1.5388e+06
1.53841e+06
1.53799e+06
1.53754e+06
1.53705e+06
1.53653e+06
1.53598e+06
1.53539e+06
1.53476e+06
1.5341e+06
1.5334e+06
1.53267e+06
1.53189e+06
1.53107e+06
1.53021e+06
1.52932e+06
1.5284e+06
1.52743e+06
1.52644e+06
1.52537e+06
1.52427e+06
1.52315e+06
1.52197e+06
1.52074e+06
1.5195e+06
1.51822e+06
1.5169e+06
1.51555e+06
1.51415e+06
1.51269e+06
1.5112e+06
1.50968e+06
1.50812e+06
1.50655e+06
1.50495e+06
1.50334e+06
1.50169e+06
1.5e+06
1.49829e+06
1.49655e+06
1.49478e+06
1.49297e+06