/*--------------------------------*- C++ -*----------------------------------*\
| =========                 |                                                 |
| \\      /  F ield         | OpenFOAM: The Open Source CFD Toolbox           |
|  \\    /   O peration     | Version:  v1906                                 |
|   \\  /    A nd           | Web:      www.OpenFOAM.com                      |
|    \\/     M anipulation  |                                                 |
\*---------------------------------------------------------------------------*/
FoamFile
{
    version     2.0;
    format      ascii;
    class       volScalarField;
    location    "2.83";
    object      H;
}
// * * * * * * * * * * * * * * * * * * * * * * * * * * * * * * * * * * * * * //

dimensions      [0 0 0 0 0 0 0];


internalField   nonuniform List<scalar> 
26400
(
3.47302e-05
3.47106e-05
3.46713e-05
3.46124e-05
3.45338e-05
3.44354e-05
3.43172e-05
3.41792e-05
3.40214e-05
3.38435e-05
3.36456e-05
3.34277e-05
3.31895e-05
3.29312e-05
3.26526e-05
3.23536e-05
3.20341e-05
3.16941e-05
3.13335e-05
3.0952e-05
3.05495e-05
3.01257e-05
2.96804e-05
2.9213e-05
2.8723e-05
2.82097e-05
2.7672e-05
2.71088e-05
2.65184e-05
2.58986e-05
2.52468e-05
2.45671e-05
2.38599e-05
2.31258e-05
2.23649e-05
2.15771e-05
2.07629e-05
1.99234e-05
1.90597e-05
1.81563e-05
1.72138e-05
1.6233e-05
1.52139e-05
1.41564e-05
1.30602e-05
1.19248e-05
1.07499e-05
9.53623e-06
8.28649e-06
7.00833e-06
5.71859e-06
4.44983e-06
3.13915e-06
1.89428e-06
9.58338e-07
7.12488e-07
3.10908e-07
4.55634e-08
2.85825e-09
6.87111e-11
3.47592e-05
3.47397e-05
3.47006e-05
3.46418e-05
3.45633e-05
3.44652e-05
3.43472e-05
3.42093e-05
3.40515e-05
3.38736e-05
3.36756e-05
3.34573e-05
3.32187e-05
3.29596e-05
3.26801e-05
3.238e-05
3.20592e-05
3.17176e-05
3.13551e-05
3.09715e-05
3.05666e-05
3.01403e-05
2.96922e-05
2.92218e-05
2.87287e-05
2.8212e-05
2.76709e-05
2.71041e-05
2.65099e-05
2.58863e-05
2.52304e-05
2.45466e-05
2.38355e-05
2.30977e-05
2.23332e-05
2.15422e-05
2.07252e-05
1.98833e-05
1.90177e-05
1.81139e-05
1.71731e-05
1.61958e-05
1.51825e-05
1.41336e-05
1.3049e-05
1.19287e-05
1.07731e-05
9.58346e-06
8.36414e-06
7.12604e-06
5.89543e-06
4.60403e-06
3.28407e-06
2.02289e-06
1.04057e-06
7.68397e-07
3.34883e-07
4.87388e-08
3.06065e-09
7.42484e-11
3.47808e-05
3.47614e-05
3.47225e-05
3.46642e-05
3.45862e-05
3.44886e-05
3.43712e-05
3.42338e-05
3.40765e-05
3.38989e-05
3.37011e-05
3.34828e-05
3.32439e-05
3.29844e-05
3.27041e-05
3.24028e-05
3.20806e-05
3.17372e-05
3.13726e-05
3.09866e-05
3.05791e-05
3.01497e-05
2.96983e-05
2.92244e-05
2.87275e-05
2.82069e-05
2.76616e-05
2.70905e-05
2.64919e-05
2.58638e-05
2.52031e-05
2.45145e-05
2.37988e-05
2.30567e-05
2.22881e-05
2.14932e-05
2.06729e-05
1.98283e-05
1.89606e-05
1.80564e-05
1.71169e-05
1.61431e-05
1.51358e-05
1.40954e-05
1.30224e-05
1.19171e-05
1.07798e-05
9.61205e-06
8.41727e-06
7.2045e-06
5.99615e-06
4.72547e-06
3.42251e-06
2.16506e-06
1.14938e-06
8.46343e-07
3.68957e-07
5.32596e-08
3.32903e-09
8.09199e-11
3.4782e-05
3.47629e-05
3.47246e-05
3.4667e-05
3.459e-05
3.44935e-05
3.43773e-05
3.42412e-05
3.4085e-05
3.39085e-05
3.37115e-05
3.34938e-05
3.32553e-05
3.29957e-05
3.2715e-05
3.2413e-05
3.20896e-05
3.17447e-05
3.13781e-05
3.09897e-05
3.05794e-05
3.0147e-05
2.96921e-05
2.92144e-05
2.87135e-05
2.81886e-05
2.76388e-05
2.70631e-05
2.64597e-05
2.58267e-05
2.51609e-05
2.44672e-05
2.37468e-05
2.3e-05
2.22272e-05
2.14282e-05
2.06045e-05
1.9757e-05
1.8887e-05
1.79822e-05
1.70441e-05
1.60739e-05
1.50726e-05
1.40412e-05
1.29805e-05
1.18911e-05
1.07742e-05
9.63143e-06
8.46609e-06
7.28472e-06
6.09922e-06
4.85473e-06
3.58202e-06
2.35164e-06
1.33268e-06
9.59314e-07
4.13698e-07
5.84259e-08
3.60719e-09
8.80556e-11
3.47571e-05
3.47385e-05
3.47012e-05
3.46451e-05
3.45699e-05
3.44754e-05
3.43614e-05
3.42275e-05
3.40735e-05
3.3899e-05
3.37039e-05
3.34877e-05
3.32503e-05
3.29915e-05
3.27111e-05
3.24089e-05
3.20848e-05
3.17386e-05
3.13703e-05
3.09797e-05
3.05668e-05
3.01312e-05
2.96728e-05
2.91913e-05
2.86861e-05
2.81568e-05
2.76024e-05
2.70218e-05
2.64134e-05
2.57753e-05
2.51043e-05
2.44054e-05
2.368e-05
2.29285e-05
2.21513e-05
2.13482e-05
2.05209e-05
1.96705e-05
1.87981e-05
1.78926e-05
1.69557e-05
1.59887e-05
1.49932e-05
1.39704e-05
1.29216e-05
1.18482e-05
1.0752e-05
9.63596e-06
8.5059e-06
7.37438e-06
6.19306e-06
4.97172e-06
3.73931e-06
2.56678e-06
1.60644e-06
1.10403e-06
4.62022e-07
6.35123e-08
3.85854e-09
9.41696e-11
3.47014e-05
3.46838e-05
3.46482e-05
3.45945e-05
3.45223e-05
3.44312e-05
3.43208e-05
3.41907e-05
3.40403e-05
3.38692e-05
3.36772e-05
3.34637e-05
3.32285e-05
3.29714e-05
3.2692e-05
3.23903e-05
3.2066e-05
3.1719e-05
3.13493e-05
3.09567e-05
3.05412e-05
3.01025e-05
2.96406e-05
2.9155e-05
2.86455e-05
2.81115e-05
2.75521e-05
2.69663e-05
2.63527e-05
2.57092e-05
2.50326e-05
2.43284e-05
2.35978e-05
2.28415e-05
2.20597e-05
2.12525e-05
2.04215e-05
1.95679e-05
1.86928e-05
1.77861e-05
1.68498e-05
1.58858e-05
1.48956e-05
1.38812e-05
1.2844e-05
1.17859e-05
1.0709e-05
9.61638e-06
8.51235e-06
7.40333e-06
6.2486e-06
5.06222e-06
3.88011e-06
2.7975e-06
2.06756e-06
1.26253e-06
5.0157e-07
6.65639e-08
3.95883e-09
9.6348e-11
3.4609e-05
3.45929e-05
3.45605e-05
3.4511e-05
3.4444e-05
3.43585e-05
3.42539e-05
3.41295e-05
3.39846e-05
3.38188e-05
3.36314e-05
3.34221e-05
3.31904e-05
3.29359e-05
3.26585e-05
3.2358e-05
3.20341e-05
3.16868e-05
3.1316e-05
3.09216e-05
3.05036e-05
3.00618e-05
2.95962e-05
2.91065e-05
2.85923e-05
2.80533e-05
2.74887e-05
2.68975e-05
2.62782e-05
2.56291e-05
2.49468e-05
2.42369e-05
2.3501e-05
2.27398e-05
2.19536e-05
2.11424e-05
2.0308e-05
1.94514e-05
1.8573e-05
1.76644e-05
1.67281e-05
1.57663e-05
1.47811e-05
1.37745e-05
1.27487e-05
1.1706e-05
1.06496e-05
9.58449e-06
8.51899e-06
7.41727e-06
6.28111e-06
5.11977e-06
3.9626e-06
2.89314e-06
2.14232e-06
1.30675e-06
5.1094e-07
6.56917e-08
3.83469e-09
9.32877e-11
3.44701e-05
3.44574e-05
3.44312e-05
3.43902e-05
3.43318e-05
3.42553e-05
3.41595e-05
3.40436e-05
3.39068e-05
3.37483e-05
3.35675e-05
3.33639e-05
3.3137e-05
3.28864e-05
3.26119e-05
3.23133e-05
3.19904e-05
3.16432e-05
3.12716e-05
3.08755e-05
3.0455e-05
3.00101e-05
2.95407e-05
2.90466e-05
2.85276e-05
2.79834e-05
2.74131e-05
2.68161e-05
2.61908e-05
2.55356e-05
2.48472e-05
2.41315e-05
2.33901e-05
2.26239e-05
2.18333e-05
2.10186e-05
2.01823e-05
1.93259e-05
1.84401e-05
1.75273e-05
1.65895e-05
1.56292e-05
1.46483e-05
1.36491e-05
1.26338e-05
1.16049e-05
1.05656e-05
9.52029e-06
8.47668e-06
7.40069e-06
6.29469e-06
5.16705e-06
4.04266e-06
2.99252e-06
2.22023e-06
1.35554e-06
5.22334e-07
6.48067e-08
3.70405e-09
9.00841e-11
3.42976e-05
3.42874e-05
3.42664e-05
3.42333e-05
3.41863e-05
3.41227e-05
3.40392e-05
3.39348e-05
3.38085e-05
3.36596e-05
3.34872e-05
3.32909e-05
3.30701e-05
3.28245e-05
3.25538e-05
3.22579e-05
3.19365e-05
3.15897e-05
3.12175e-05
3.08199e-05
3.03971e-05
2.99489e-05
2.94755e-05
2.89768e-05
2.84527e-05
2.79028e-05
2.73266e-05
2.67233e-05
2.60916e-05
2.54299e-05
2.4735e-05
2.40129e-05
2.32655e-05
2.24935e-05
2.16977e-05
2.08781e-05
2.00372e-05
1.91758e-05
1.82861e-05
1.73709e-05
1.64329e-05
1.54745e-05
1.44984e-05
1.35068e-05
1.25025e-05
1.14882e-05
1.04672e-05
9.44314e-06
8.42041e-06
7.36975e-06
6.29528e-06
5.20532e-06
4.12069e-06
3.09816e-06
2.30367e-06
1.40665e-06
5.3317e-07
6.30481e-08
3.48342e-09
8.35585e-11
3.41057e-05
3.40977e-05
3.40811e-05
3.40547e-05
3.40168e-05
3.39649e-05
3.38959e-05
3.38058e-05
3.36926e-05
3.35552e-05
3.3393e-05
3.32054e-05
3.29919e-05
3.27523e-05
3.24862e-05
3.21935e-05
3.18741e-05
3.15281e-05
3.11556e-05
3.07566e-05
3.03313e-05
2.98798e-05
2.94023e-05
2.88988e-05
2.83692e-05
2.78133e-05
2.72307e-05
2.66208e-05
2.59822e-05
2.53136e-05
2.46118e-05
2.3883e-05
2.3129e-05
2.23512e-05
2.15504e-05
2.07273e-05
1.98849e-05
1.90144e-05
1.81184e-05
1.71995e-05
1.62602e-05
1.53033e-05
1.43313e-05
1.3347e-05
1.23537e-05
1.1355e-05
1.03557e-05
9.36251e-06
8.35118e-06
7.32289e-06
6.28096e-06
5.23363e-06
4.20018e-06
3.22416e-06
2.39303e-06
1.455e-06
5.41782e-07
6.06278e-08
3.22209e-09
7.57764e-11
3.39019e-05
3.38957e-05
3.38828e-05
3.38622e-05
3.38322e-05
3.37905e-05
3.37342e-05
3.36598e-05
3.35629e-05
3.34382e-05
3.32873e-05
3.31096e-05
3.29045e-05
3.26717e-05
3.24109e-05
3.21221e-05
3.18053e-05
3.14604e-05
3.10877e-05
3.06874e-05
3.02597e-05
2.98049e-05
2.93231e-05
2.88145e-05
2.82792e-05
2.7717e-05
2.71277e-05
2.65106e-05
2.58648e-05
2.51888e-05
2.44795e-05
2.37431e-05
2.29817e-05
2.21965e-05
2.13883e-05
2.05591e-05
1.97105e-05
1.88346e-05
1.79343e-05
1.70127e-05
1.60725e-05
1.51167e-05
1.4148e-05
1.31697e-05
1.21849e-05
1.11977e-05
1.02131e-05
9.23771e-06
8.24873e-06
7.24847e-06
6.24185e-06
5.24035e-06
4.27196e-06
3.4072e-06
2.47652e-06
1.48999e-06
5.425e-07
5.67917e-08
2.85732e-09
6.45992e-11
3.36908e-05
3.36862e-05
3.36765e-05
3.36607e-05
3.36372e-05
3.36039e-05
3.35581e-05
3.34965e-05
3.34148e-05
3.33081e-05
3.31707e-05
3.30046e-05
3.28093e-05
3.25845e-05
3.23301e-05
3.20459e-05
3.17321e-05
3.13888e-05
3.10163e-05
3.06149e-05
3.01848e-05
2.97266e-05
2.92404e-05
2.87266e-05
2.81853e-05
2.76167e-05
2.70203e-05
2.63959e-05
2.57425e-05
2.50588e-05
2.43419e-05
2.35978e-05
2.28289e-05
2.20365e-05
2.12218e-05
2.0387e-05
1.95298e-05
1.8647e-05
1.77414e-05
1.68162e-05
1.58743e-05
1.49188e-05
1.39527e-05
1.29793e-05
1.20023e-05
1.10257e-05
1.00547e-05
9.09613e-06
8.12842e-06
7.15409e-06
6.17762e-06
5.20849e-06
4.26873e-06
3.41426e-06
2.48807e-06
1.49891e-06
5.35921e-07
5.2316e-08
2.49533e-09
5.33825e-11
3.34769e-05
3.34736e-05
3.34666e-05
3.3455e-05
3.34371e-05
3.34112e-05
3.33745e-05
3.33239e-05
3.32556e-05
3.31649e-05
3.30463e-05
3.28934e-05
3.27092e-05
3.24935e-05
3.22463e-05
3.19675e-05
3.16574e-05
3.13161e-05
3.0944e-05
3.05416e-05
3.01094e-05
2.96478e-05
2.91573e-05
2.86382e-05
2.8091e-05
2.75157e-05
2.69123e-05
2.62804e-05
2.56193e-05
2.49278e-05
2.4203e-05
2.34508e-05
2.26738e-05
2.18734e-05
2.10508e-05
2.02083e-05
1.93436e-05
1.84542e-05
1.75432e-05
1.6614e-05
1.56697e-05
1.47136e-05
1.3749e-05
1.27795e-05
1.1809e-05
1.0842e-05
9.88362e-06
8.94097e-06
7.99419e-06
7.04634e-06
6.10224e-06
5.17036e-06
4.2663e-06
3.41754e-06
2.49513e-06
1.5062e-06
5.30982e-07
4.78892e-08
2.16561e-09
4.33124e-11
3.32636e-05
3.32615e-05
3.32568e-05
3.32487e-05
3.32357e-05
3.32161e-05
3.31874e-05
3.31466e-05
3.30901e-05
3.30135e-05
3.29116e-05
3.27784e-05
3.26068e-05
3.24015e-05
3.21625e-05
3.189e-05
3.15841e-05
3.12453e-05
3.08741e-05
3.04711e-05
3.00369e-05
2.95721e-05
2.90774e-05
2.85533e-05
2.80003e-05
2.74186e-05
2.68082e-05
2.6169e-05
2.55004e-05
2.48011e-05
2.40687e-05
2.33085e-05
2.25233e-05
2.17148e-05
2.08843e-05
2.00332e-05
1.91604e-05
1.82637e-05
1.73465e-05
1.64122e-05
1.54643e-05
1.45062e-05
1.35416e-05
1.25744e-05
1.16088e-05
1.06494e-05
9.7018e-06
8.77319e-06
7.84555e-06
6.92299e-06
6.01205e-06
5.12491e-06
4.28646e-06
3.41513e-06
2.49315e-06
1.51099e-06
5.30326e-07
4.64631e-08
1.96238e-09
3.61988e-11
3.30537e-05
3.30526e-05
3.30499e-05
3.30449e-05
3.30362e-05
3.30221e-05
3.30003e-05
3.2968e-05
3.29218e-05
3.28577e-05
3.27707e-05
3.26552e-05
3.25046e-05
3.2311e-05
3.20815e-05
3.18161e-05
3.15153e-05
3.11797e-05
3.081e-05
3.04069e-05
2.99712e-05
2.95038e-05
2.90054e-05
2.84769e-05
2.79186e-05
2.73311e-05
2.67144e-05
2.60684e-05
2.53927e-05
2.46861e-05
2.39463e-05
2.31783e-05
2.23848e-05
2.15678e-05
2.07289e-05
1.98694e-05
1.89883e-05
1.80839e-05
1.71597e-05
1.62192e-05
1.52662e-05
1.43045e-05
1.33381e-05
1.2371e-05
1.14078e-05
1.04535e-05
9.51384e-06
8.59597e-06
7.68344e-06
6.78039e-06
5.89276e-06
5.03085e-06
4.21502e-06
3.36918e-06
2.4745e-06
1.51607e-06
5.41021e-07
4.67627e-08
1.85238e-09
3.18631e-11
3.28501e-05
3.28498e-05
3.28489e-05
3.28465e-05
3.28416e-05
3.28323e-05
3.28165e-05
3.27916e-05
3.27545e-05
3.27012e-05
3.26273e-05
3.25276e-05
3.23958e-05
3.22247e-05
3.20059e-05
3.1749e-05
3.14543e-05
3.11228e-05
3.07552e-05
3.03526e-05
2.99161e-05
2.94468e-05
2.89457e-05
2.84138e-05
2.78517e-05
2.72598e-05
2.66383e-05
2.59871e-05
2.53056e-05
2.45929e-05
2.38467e-05
2.30714e-05
2.22698e-05
2.14438e-05
2.0597e-05
1.97294e-05
1.88402e-05
1.79276e-05
1.69954e-05
1.60476e-05
1.5088e-05
1.41209e-05
1.31504e-05
1.21811e-05
1.12177e-05
1.02656e-05
9.33102e-06
8.42122e-06
7.52173e-06
6.63676e-06
5.77172e-06
4.93514e-06
4.14314e-06
3.32707e-06
2.46676e-06
1.54159e-06
5.81468e-07
5.06403e-08
1.94106e-09
3.21944e-11
3.26547e-05
3.26552e-05
3.26559e-05
3.2656e-05
3.26544e-05
3.26495e-05
3.26391e-05
3.2621e-05
3.25919e-05
3.25483e-05
3.24861e-05
3.24003e-05
3.22851e-05
3.21341e-05
3.19393e-05
3.1692e-05
3.14045e-05
3.10778e-05
3.07129e-05
3.03114e-05
2.98746e-05
2.94042e-05
2.89019e-05
2.8369e-05
2.78059e-05
2.72129e-05
2.65899e-05
2.59365e-05
2.52519e-05
2.45352e-05
2.37844e-05
2.30031e-05
2.21944e-05
2.13607e-05
2.05056e-05
1.96295e-05
1.8732e-05
1.78107e-05
1.68698e-05
1.59134e-05
1.49457e-05
1.3971e-05
1.2994e-05
1.20195e-05
1.10525e-05
1.00988e-05
9.16504e-06
8.25919e-06
7.37041e-06
6.50192e-06
5.6584e-06
4.84703e-06
4.08035e-06
3.29846e-06
2.48107e-06
1.60239e-06
6.67924e-07
6.13341e-08
2.45581e-09
4.17168e-11
3.2469e-05
3.24703e-05
3.24726e-05
3.24751e-05
3.24768e-05
3.24761e-05
3.24709e-05
3.2459e-05
3.24375e-05
3.24029e-05
3.23514e-05
3.22782e-05
3.21782e-05
3.20451e-05
3.18719e-05
3.16506e-05
3.13716e-05
3.10505e-05
3.06886e-05
3.02876e-05
2.98492e-05
2.93741e-05
2.88722e-05
2.83424e-05
2.77841e-05
2.71964e-05
2.65784e-05
2.59291e-05
2.52468e-05
2.45294e-05
2.37764e-05
2.29905e-05
2.21751e-05
2.1336e-05
2.04742e-05
1.95905e-05
1.8685e-05
1.77549e-05
1.68046e-05
1.58383e-05
1.48608e-05
1.38764e-05
1.289e-05
1.19066e-05
1.09314e-05
9.97017e-06
9.02917e-06
8.11549e-06
7.23749e-06
6.38224e-06
5.55564e-06
4.76474e-06
4.02014e-06
3.27212e-06
2.50318e-06
1.68413e-06
7.91639e-07
8.41845e-08
4.42739e-09
8.83109e-11
3.22936e-05
3.22957e-05
3.22997e-05
3.23049e-05
3.23101e-05
3.23138e-05
3.23141e-05
3.23087e-05
3.22947e-05
3.22691e-05
3.22279e-05
3.21668e-05
3.20809e-05
3.19644e-05
3.1811e-05
3.16132e-05
3.13626e-05
3.10496e-05
3.06928e-05
3.02937e-05
2.98648e-05
2.94055e-05
2.89156e-05
2.83948e-05
2.78429e-05
2.72596e-05
2.66444e-05
2.59966e-05
2.53152e-05
2.45984e-05
2.38436e-05
2.30547e-05
2.22353e-05
2.13913e-05
2.0524e-05
1.96345e-05
1.8723e-05
1.77855e-05
1.68263e-05
1.58501e-05
1.48614e-05
1.38649e-05
1.28655e-05
1.18686e-05
1.08795e-05
9.90422e-06
8.94951e-06
8.02311e-06
7.13462e-06
6.27637e-06
5.45262e-06
4.66933e-06
3.93526e-06
3.21077e-06
2.48229e-06
1.7246e-06
9.07286e-07
1.41528e-07
1.37998e-08
3.73793e-10
3.21277e-05
3.21308e-05
3.21369e-05
3.21451e-05
3.21544e-05
3.21633e-05
3.21698e-05
3.21718e-05
3.21664e-05
3.21504e-05
3.21201e-05
3.20714e-05
3.19995e-05
3.18989e-05
3.17637e-05
3.15872e-05
3.13622e-05
3.10807e-05
3.07338e-05
3.03561e-05
2.99461e-05
2.95033e-05
2.90272e-05
2.85178e-05
2.7975e-05
2.73989e-05
2.67894e-05
2.61459e-05
2.5468e-05
2.47544e-05
2.40028e-05
2.32144e-05
2.23973e-05
2.15535e-05
2.0685e-05
1.97931e-05
1.8879e-05
1.79374e-05
1.69726e-05
1.59889e-05
1.49908e-05
1.39831e-05
1.29706e-05
1.19586e-05
1.09524e-05
9.95778e-06
8.98091e-06
8.02855e-06
7.10817e-06
6.24345e-06
5.41258e-06
4.62313e-06
3.88304e-06
3.16696e-06
2.46443e-06
1.75832e-06
1.03637e-06
3.48114e-07
6.32366e-08
2.67764e-09
3.19678e-05
3.19722e-05
3.19808e-05
3.19928e-05
3.20072e-05
3.20226e-05
3.20369e-05
3.2048e-05
3.20532e-05
3.20491e-05
3.20322e-05
3.19981e-05
3.19419e-05
3.18582e-05
3.17407e-05
3.15826e-05
3.13759e-05
3.1112e-05
3.08085e-05
3.04658e-05
3.00846e-05
2.96654e-05
2.92091e-05
2.87165e-05
2.81882e-05
2.76249e-05
2.70269e-05
2.63946e-05
2.57277e-05
2.50255e-05
2.42869e-05
2.35098e-05
2.27025e-05
2.18674e-05
2.10066e-05
2.01217e-05
1.92141e-05
1.82842e-05
1.73281e-05
1.63505e-05
1.53557e-05
1.43486e-05
1.33338e-05
1.23164e-05
1.13018e-05
1.02958e-05
9.3045e-06
8.33462e-06
7.39442e-06
6.49329e-06
5.64921e-06
4.84988e-06
4.10239e-06
3.40831e-06
2.74448e-06
2.1043e-06
1.46794e-06
8.65926e-07
3.21713e-07
1.82345e-08
3.18121e-05
3.1818e-05
3.18299e-05
3.18467e-05
3.18674e-05
3.18903e-05
3.19134e-05
3.19342e-05
3.19496e-05
3.1956e-05
3.19492e-05
3.19244e-05
3.18759e-05
3.17973e-05
3.16814e-05
3.15202e-05
3.13046e-05
3.10416e-05
3.07319e-05
3.03768e-05
2.99774e-05
2.95351e-05
2.9051e-05
2.85264e-05
2.79626e-05
2.73603e-05
2.67203e-05
2.60428e-05
2.53276e-05
2.45736e-05
2.37791e-05
2.29501e-05
2.20898e-05
2.12011e-05
2.02864e-05
1.93476e-05
1.83858e-05
1.73943e-05
1.63785e-05
1.53436e-05
1.42947e-05
1.32372e-05
1.21762e-05
1.11173e-05
1.00664e-05
9.03061e-06
8.01884e-06
7.04207e-06
6.11253e-06
5.25202e-06
4.44525e-06
3.7042e-06
3.03876e-06
2.4099e-06
1.81167e-06
1.23575e-06
6.71503e-07
1.54318e-07
1.34788e-08
3.49101e-10
3.16599e-05
3.16676e-05
3.1683e-05
3.17051e-05
3.17327e-05
3.17641e-05
3.17972e-05
3.18291e-05
3.18565e-05
3.18753e-05
3.18809e-05
3.18674e-05
3.18284e-05
3.17563e-05
3.16428e-05
3.14783e-05
3.12579e-05
3.09831e-05
3.06557e-05
3.02773e-05
2.98499e-05
2.93751e-05
2.88548e-05
2.82905e-05
2.76839e-05
2.70361e-05
2.63481e-05
2.56203e-05
2.48523e-05
2.40433e-05
2.31911e-05
2.23051e-05
2.13889e-05
2.04454e-05
1.94771e-05
1.84856e-05
1.74622e-05
1.64133e-05
1.5345e-05
1.42635e-05
1.31752e-05
1.20862e-05
1.10032e-05
9.93293e-06
8.88293e-06
7.86136e-06
6.87747e-06
5.94198e-06
5.07117e-06
4.27447e-06
3.5506e-06
2.92114e-06
2.34412e-06
1.81399e-06
1.32298e-06
8.6084e-07
4.23372e-07
8.74311e-08
6.91285e-09
6.58635e-10
3.1509e-05
3.15185e-05
3.15375e-05
3.1565e-05
3.15999e-05
3.16405e-05
3.16845e-05
3.17291e-05
3.17709e-05
3.18053e-05
3.18271e-05
3.18299e-05
3.18061e-05
3.17468e-05
3.16418e-05
3.14728e-05
3.12417e-05
3.0951e-05
3.06029e-05
3.01995e-05
2.97431e-05
2.92358e-05
2.86799e-05
2.80772e-05
2.74296e-05
2.67387e-05
2.60057e-05
2.52313e-05
2.44155e-05
2.3557e-05
2.26538e-05
2.17191e-05
2.07566e-05
1.97698e-05
1.87607e-05
1.77171e-05
1.66462e-05
1.55551e-05
1.44507e-05
1.33397e-05
1.2229e-05
1.11253e-05
1.00356e-05
8.9674e-06
7.92882e-06
6.92904e-06
5.97863e-06
5.09273e-06
4.27735e-06
3.54114e-06
2.89265e-06
2.35733e-06
1.87444e-06
1.43699e-06
1.03447e-06
6.55065e-07
2.98199e-07
5.68125e-08
4.97123e-09
6.73466e-09
3.13589e-05
3.137e-05
3.13922e-05
3.14247e-05
3.14663e-05
3.15155e-05
3.15703e-05
3.16281e-05
3.16855e-05
3.17382e-05
3.17805e-05
3.18054e-05
3.18041e-05
3.1766e-05
3.16568e-05
3.14794e-05
3.12361e-05
3.09294e-05
3.05614e-05
3.01347e-05
2.96516e-05
2.91146e-05
2.85257e-05
2.78871e-05
2.7201e-05
2.64693e-05
2.56937e-05
2.48756e-05
2.40151e-05
2.31112e-05
2.21621e-05
2.11848e-05
2.01838e-05
1.91637e-05
1.81069e-05
1.7021e-05
1.59137e-05
1.47926e-05
1.3665e-05
1.25383e-05
1.14196e-05
1.03162e-05
9.23553e-06
8.18559e-06
7.17493e-06
6.21318e-06
5.31145e-06
4.47555e-06
3.71037e-06
3.02429e-06
2.43517e-06
1.96905e-06
1.55502e-06
1.18555e-06
8.50066e-07
5.36528e-07
2.42931e-07
4.85552e-08
8.30171e-09
8.31642e-08
3.12106e-05
3.1223e-05
3.12477e-05
3.12841e-05
3.13309e-05
3.13868e-05
3.14501e-05
3.1519e-05
3.15912e-05
3.16629e-05
3.17293e-05
3.17833e-05
3.18148e-05
3.17725e-05
3.16592e-05
3.14765e-05
3.12254e-05
3.09071e-05
3.05237e-05
3.00782e-05
2.95735e-05
2.90117e-05
2.83946e-05
2.77241e-05
2.70021e-05
2.62316e-05
2.54152e-05
2.45552e-05
2.36528e-05
2.27074e-05
2.17169e-05
2.07016e-05
1.96649e-05
1.86097e-05
1.75191e-05
1.64031e-05
1.52708e-05
1.41305e-05
1.29902e-05
1.18573e-05
1.07392e-05
9.64308e-06
8.5766e-06
7.54763e-06
6.56474e-06
5.63728e-06
4.77551e-06
3.97678e-06
3.24581e-06
2.59232e-06
2.04523e-06
1.63335e-06
1.2754e-06
9.65437e-07
6.91852e-07
4.40124e-07
2.03577e-07
4.57515e-08
1.81568e-08
1.85556e-07
3.10656e-05
3.10792e-05
3.11064e-05
3.11459e-05
3.11962e-05
3.12554e-05
3.13219e-05
3.13948e-05
3.14757e-05
3.15621e-05
3.16514e-05
3.17421e-05
3.17665e-05
3.17272e-05
3.16227e-05
3.14492e-05
3.12026e-05
3.088e-05
3.04832e-05
3.00228e-05
2.95029e-05
2.89245e-05
2.82866e-05
2.75884e-05
2.68308e-05
2.60193e-05
2.51592e-05
2.42552e-05
2.33109e-05
2.23271e-05
2.13029e-05
2.02592e-05
1.9201e-05
1.81044e-05
1.698e-05
1.58375e-05
1.4686e-05
1.35337e-05
1.23883e-05
1.12568e-05
1.01464e-05
9.0642e-06
8.01778e-06
7.01517e-06
6.06489e-06
5.17648e-06
4.3468e-06
3.57477e-06
2.86213e-06
2.22252e-06
1.69845e-06
1.31478e-06
9.9676e-07
7.38894e-07
5.27365e-07
3.448e-07
1.76294e-07
5.39485e-08
1.8308e-08
2.29253e-07
3.09233e-05
3.09394e-05
3.09707e-05
3.10156e-05
3.1071e-05
3.11328e-05
3.11949e-05
3.12535e-05
3.13337e-05
3.14195e-05
3.15005e-05
3.15657e-05
3.16024e-05
3.15981e-05
3.15392e-05
3.14111e-05
3.1197e-05
3.0878e-05
3.0432e-05
2.99545e-05
2.94336e-05
2.88584e-05
2.82185e-05
2.75027e-05
2.6698e-05
2.58351e-05
2.4921e-05
2.39635e-05
2.29718e-05
2.19486e-05
2.0908e-05
1.98362e-05
1.87458e-05
1.76188e-05
1.64697e-05
1.53097e-05
1.41487e-05
1.29935e-05
1.1851e-05
1.07275e-05
9.62978e-06
8.56463e-06
7.53976e-06
6.56377e-06
5.64376e-06
4.7881e-06
3.98565e-06
3.23058e-06
2.50757e-06
1.84301e-06
1.32828e-06
9.41253e-07
6.58381e-07
4.57106e-07
3.16671e-07
2.18988e-07
1.49178e-07
9.54759e-08
4.93707e-08
1.69145e-08
3.07834e-05
3.08029e-05
3.0842e-05
3.08991e-05
3.09724e-05
3.10592e-05
3.11563e-05
3.12601e-05
3.13659e-05
3.14678e-05
3.15579e-05
3.16271e-05
3.16642e-05
3.16562e-05
3.15881e-05
3.14422e-05
3.11987e-05
3.08359e-05
3.04322e-05
2.99806e-05
2.94735e-05
2.89025e-05
2.82575e-05
2.75265e-05
2.66953e-05
2.57981e-05
2.4843e-05
2.38383e-05
2.2792e-05
2.17116e-05
2.05985e-05
1.94628e-05
1.8309e-05
1.71432e-05
1.59715e-05
1.47994e-05
1.36397e-05
1.24905e-05
1.1358e-05
1.02481e-05
9.16681e-06
8.12072e-06
7.11773e-06
6.17337e-06
5.28652e-06
4.45642e-06
3.68219e-06
2.96288e-06
2.29673e-06
1.678e-06
1.20223e-06
8.47775e-07
5.91889e-07
4.12361e-07
2.88672e-07
2.03184e-07
1.4165e-07
9.28555e-08
4.91739e-08
1.7456e-08
3.08926e-05
3.09131e-05
3.0954e-05
3.10139e-05
3.10908e-05
3.1182e-05
3.12839e-05
3.13921e-05
3.15013e-05
3.16046e-05
3.16942e-05
3.17603e-05
3.17914e-05
3.17734e-05
3.16895e-05
3.15186e-05
3.12345e-05
3.09013e-05
3.05165e-05
3.00759e-05
2.95735e-05
2.90015e-05
2.83498e-05
2.76056e-05
2.67516e-05
2.58213e-05
2.48282e-05
2.37838e-05
2.26973e-05
2.15765e-05
2.04306e-05
1.92641e-05
1.80822e-05
1.68919e-05
1.56995e-05
1.45103e-05
1.33363e-05
1.21849e-05
1.10534e-05
9.94729e-06
8.8717e-06
7.83182e-06
6.84999e-06
5.92569e-06
5.05806e-06
4.24597e-06
3.48804e-06
2.78295e-06
2.13107e-06
1.54263e-06
1.10013e-06
7.75144e-07
5.42774e-07
3.80544e-07
2.68813e-07
1.91253e-07
1.34981e-07
9.00049e-08
4.89459e-08
1.80804e-08
3.10728e-05
3.10934e-05
3.11345e-05
3.11947e-05
3.12719e-05
3.13632e-05
3.14648e-05
3.15721e-05
3.16794e-05
3.17797e-05
3.18647e-05
3.19244e-05
3.19471e-05
3.19192e-05
3.18248e-05
3.16452e-05
3.13585e-05
3.10272e-05
3.06446e-05
3.02044e-05
2.97e-05
2.91238e-05
2.84663e-05
2.77158e-05
2.68579e-05
2.58749e-05
2.48362e-05
2.37507e-05
2.26268e-05
2.14716e-05
2.02946e-05
1.91006e-05
1.78939e-05
1.66816e-05
1.54694e-05
1.4267e-05
1.3082e-05
1.19214e-05
1.07919e-05
9.69005e-06
8.62196e-06
7.59325e-06
6.62485e-06
5.71536e-06
4.86304e-06
4.06559e-06
3.31943e-06
2.61782e-06
1.94638e-06
1.41693e-06
1.01294e-06
7.1479e-07
5.01722e-07
3.53449e-07
2.51512e-07
1.80577e-07
1.28777e-07
8.7031e-08
4.84844e-08
1.86828e-08
3.12869e-05
3.13074e-05
3.13483e-05
3.14081e-05
3.14846e-05
3.15747e-05
3.16746e-05
3.17793e-05
3.18828e-05
3.19776e-05
3.20548e-05
3.21036e-05
3.21115e-05
3.20637e-05
3.19435e-05
3.17332e-05
3.1472e-05
3.11553e-05
3.07793e-05
3.03395e-05
2.98305e-05
2.92453e-05
2.85743e-05
2.78053e-05
2.69223e-05
2.59051e-05
2.48315e-05
2.37118e-05
2.2555e-05
2.13689e-05
2.01635e-05
1.89443e-05
1.77155e-05
1.64843e-05
1.52561e-05
1.40413e-05
1.28472e-05
1.16809e-05
1.05497e-05
9.45102e-06
8.39014e-06
7.37278e-06
6.41771e-06
5.52266e-06
4.68525e-06
3.90292e-06
3.1722e-06
2.48682e-06
1.83258e-06
1.32461e-06
9.4241e-07
6.63823e-07
4.66656e-07
3.30179e-07
2.36382e-07
1.70832e-07
1.22703e-07
8.3942e-08
4.81367e-08
1.92665e-08
3.15264e-05
3.15467e-05
3.15871e-05
3.16462e-05
3.17215e-05
3.181e-05
3.19075e-05
3.20088e-05
3.21076e-05
3.2196e-05
3.22643e-05
3.23009e-05
3.22915e-05
3.22183e-05
3.2059e-05
3.18603e-05
3.16152e-05
3.13051e-05
3.09291e-05
3.04845e-05
2.99668e-05
2.93692e-05
2.86821e-05
2.78922e-05
2.69822e-05
2.59297e-05
2.4821e-05
2.36671e-05
2.24779e-05
2.12615e-05
2.00284e-05
1.87848e-05
1.75349e-05
1.62859e-05
1.50433e-05
1.38175e-05
1.26154e-05
1.14435e-05
1.0308e-05
9.21541e-06
8.16265e-06
7.15839e-06
6.21772e-06
5.33727e-06
4.51408e-06
3.7453e-06
3.02774e-06
2.35689e-06
1.72235e-06
1.23738e-06
8.77181e-07
6.1718e-07
4.34472e-07
3.0856e-07
2.2211e-07
1.61459e-07
1.16658e-07
8.05826e-08
4.75234e-08
1.97741e-08
3.17887e-05
3.18086e-05
3.18485e-05
3.19065e-05
3.19803e-05
3.20666e-05
3.2161e-05
3.22583e-05
3.23517e-05
3.24331e-05
3.24926e-05
3.25183e-05
3.2496e-05
3.24097e-05
3.22415e-05
3.20376e-05
3.1788e-05
3.14724e-05
3.10888e-05
3.06343e-05
3.01045e-05
2.94921e-05
2.8787e-05
2.79748e-05
2.70363e-05
2.59467e-05
2.48015e-05
2.36127e-05
2.23907e-05
2.11438e-05
1.9883e-05
1.86155e-05
1.73449e-05
1.60782e-05
1.48238e-05
1.35894e-05
1.23819e-05
1.12075e-05
1.00724e-05
8.98236e-06
7.93234e-06
6.94627e-06
6.02176e-06
5.15606e-06
4.34605e-06
3.58812e-06
2.8781e-06
2.21342e-06
1.60487e-06
1.14865e-06
8.13355e-07
5.72991e-07
4.04779e-07
2.88902e-07
2.08997e-07
1.52502e-07
1.10529e-07
7.69327e-08
4.66513e-08
2.01582e-08
3.20724e-05
3.2092e-05
3.2131e-05
3.21878e-05
3.22596e-05
3.23432e-05
3.24339e-05
3.25261e-05
3.26128e-05
3.26854e-05
3.27333e-05
3.27434e-05
3.26996e-05
3.2581e-05
3.24215e-05
3.22169e-05
3.19599e-05
3.16401e-05
3.12478e-05
3.07816e-05
3.02377e-05
2.9609e-05
2.88846e-05
2.80489e-05
2.70804e-05
2.59514e-05
2.4768e-05
2.35431e-05
2.22874e-05
2.10097e-05
1.97211e-05
1.84301e-05
1.71399e-05
1.58573e-05
1.45913e-05
1.33493e-05
1.21379e-05
1.09632e-05
9.831e-06
8.74752e-06
7.70895e-06
6.73628e-06
5.82586e-06
4.9741e-06
4.17695e-06
3.42861e-06
2.71874e-06
2.02569e-06
1.47924e-06
1.0618e-06
7.52947e-07
5.31343e-07
3.76432e-07
2.69749e-07
1.95947e-07
1.43405e-07
1.04138e-07
7.28414e-08
4.51448e-08
2.03454e-08
3.23766e-05
3.23958e-05
3.24339e-05
3.24892e-05
3.25588e-05
3.26392e-05
3.27255e-05
3.28118e-05
3.28907e-05
3.29533e-05
3.29889e-05
3.29848e-05
3.2926e-05
3.27952e-05
3.2626e-05
3.24117e-05
3.21441e-05
3.18123e-05
3.14058e-05
3.0924e-05
3.03633e-05
2.97163e-05
2.89711e-05
2.81104e-05
2.71103e-05
2.59392e-05
2.47154e-05
2.34526e-05
2.21621e-05
2.08528e-05
1.9536e-05
1.82213e-05
1.69116e-05
1.56143e-05
1.4338e-05
1.30899e-05
1.18764e-05
1.07029e-05
9.57464e-06
8.49669e-06
7.47438e-06
6.51745e-06
5.62239e-06
4.7857e-06
4.00353e-06
3.27071e-06
2.57787e-06
1.90353e-06
1.37979e-06
9.85109e-07
6.96638e-07
4.91735e-07
3.49406e-07
2.51469e-07
1.83314e-07
1.34301e-07
9.74231e-08
6.82631e-08
4.31454e-08
2.03063e-08
3.27006e-05
3.27193e-05
3.27565e-05
3.28101e-05
3.28772e-05
3.2954e-05
3.30353e-05
3.31147e-05
3.31843e-05
3.32342e-05
3.32529e-05
3.32264e-05
3.31384e-05
3.30068e-05
3.28304e-05
3.26057e-05
3.23262e-05
3.19817e-05
3.15571e-05
3.10567e-05
3.04769e-05
2.98098e-05
2.90424e-05
2.81554e-05
2.71216e-05
2.59052e-05
2.46383e-05
2.33353e-05
2.20084e-05
2.06667e-05
1.93212e-05
1.79827e-05
1.66537e-05
1.53422e-05
1.40568e-05
1.28045e-05
1.1591e-05
1.04213e-05
9.30022e-06
8.23283e-06
7.2257e-06
6.2844e-06
5.40466e-06
4.58266e-06
3.81459e-06
3.09602e-06
2.41999e-06
1.7696e-06
1.27321e-06
9.04659e-07
6.38401e-07
4.50929e-07
3.2143e-07
2.32303e-07
1.69852e-07
1.24463e-07
9.00628e-08
6.30415e-08
4.04526e-08
1.99485e-08
3.30436e-05
3.30618e-05
3.3098e-05
3.31499e-05
3.32145e-05
3.32875e-05
3.33635e-05
3.34355e-05
3.34949e-05
3.35311e-05
3.35312e-05
3.34794e-05
3.33787e-05
3.32316e-05
3.30383e-05
3.27967e-05
3.25008e-05
3.21402e-05
3.16978e-05
3.11761e-05
3.05746e-05
2.98855e-05
2.90944e-05
2.81794e-05
2.71097e-05
2.58443e-05
2.45309e-05
2.31847e-05
2.18186e-05
2.04441e-05
1.90701e-05
1.77078e-05
1.63589e-05
1.50339e-05
1.3741e-05
1.24864e-05
1.12752e-05
1.01117e-05
8.99977e-06
7.94325e-06
6.95512e-06
6.03113e-06
5.16724e-06
4.35944e-06
3.60348e-06
2.89454e-06
2.22809e-06
1.61242e-06
1.15335e-06
8.17268e-07
5.76789e-07
4.0859e-07
2.92592e-07
2.12395e-07
1.55642e-07
1.13872e-07
8.19434e-08
5.70602e-08
3.70234e-08
1.91837e-08
3.34048e-05
3.34225e-05
3.34577e-05
3.3508e-05
3.35699e-05
3.36391e-05
3.37094e-05
3.37736e-05
3.38223e-05
3.38442e-05
3.3826e-05
3.3752e-05
3.3628e-05
3.3457e-05
3.32406e-05
3.29775e-05
3.26625e-05
3.22862e-05
3.18329e-05
3.12798e-05
3.06521e-05
2.99389e-05
2.91226e-05
2.8178e-05
2.70699e-05
2.57511e-05
2.43875e-05
2.29936e-05
2.15898e-05
2.01827e-05
1.87782e-05
1.73877e-05
1.60192e-05
1.46822e-05
1.33839e-05
1.21297e-05
1.09237e-05
9.76961e-06
8.67086e-06
7.63152e-06
6.66083e-06
5.75369e-06
4.90541e-06
4.11131e-06
3.36565e-06
2.65896e-06
1.96773e-06
1.42956e-06
1.02296e-06
7.24553e-07
5.11709e-07
3.63392e-07
2.61208e-07
1.9024e-07
1.39474e-07
1.01597e-07
7.23566e-08
4.97215e-08
3.23107e-08
1.76289e-08
3.37832e-05
3.38006e-05
3.38348e-05
3.38834e-05
3.39427e-05
3.40078e-05
3.40722e-05
3.41279e-05
3.41647e-05
3.41701e-05
3.41279e-05
3.40271e-05
3.38744e-05
3.36745e-05
3.343e-05
3.31403e-05
3.2801e-05
3.24023e-05
3.19277e-05
3.13511e-05
3.07008e-05
2.99645e-05
2.91223e-05
2.81458e-05
2.6996e-05
2.56204e-05
2.42044e-05
2.27617e-05
2.1313e-05
1.98669e-05
1.84304e-05
1.70132e-05
1.56273e-05
1.42813e-05
1.29809e-05
1.17304e-05
1.05329e-05
9.39086e-06
8.30755e-06
7.28806e-06
6.33645e-06
5.44704e-06
4.61471e-06
3.83441e-06
3.1004e-06
2.40656e-06
1.75449e-06
1.26072e-06
8.94806e-07
6.30651e-07
4.44746e-07
3.16324e-07
2.28066e-07
1.66395e-07
1.2169e-07
8.78288e-08
6.14519e-08
4.11687e-08
2.62749e-08
1.4877e-08
3.41812e-05
3.41982e-05
3.42315e-05
3.42785e-05
3.4335e-05
3.43959e-05
3.44539e-05
3.45005e-05
3.4525e-05
3.45149e-05
3.44383e-05
3.43028e-05
3.41156e-05
3.38817e-05
3.36043e-05
3.32834e-05
3.29154e-05
3.24911e-05
3.1994e-05
3.13964e-05
3.0723e-05
2.9962e-05
2.90909e-05
2.80769e-05
2.68778e-05
2.54438e-05
2.39746e-05
2.24794e-05
2.09812e-05
1.9492e-05
1.80178e-05
1.65757e-05
1.51761e-05
1.38249e-05
1.25263e-05
1.12834e-05
1.0098e-05
8.97046e-06
7.90286e-06
6.90604e-06
5.97402e-06
5.10166e-06
4.2837e-06
3.51392e-06
2.7826e-06
2.07041e-06
1.50103e-06
1.06826e-06
7.50739e-07