/*--------------------------------*- C++ -*----------------------------------*\
| =========                 |                                                 |
| \\      /  F ield         | OpenFOAM: The Open Source CFD Toolbox           |
|  \\    /   O peration     | Version:  v1906                                 |
|   \\  /    A nd           | Web:      www.OpenFOAM.com                      |
|    \\/     M anipulation  |                                                 |
\*---------------------------------------------------------------------------*/
FoamFile
{
    version     2.0;
    format      ascii;
    class       volScalarField;
    location    "2.83";
    object      H2;
}
// * * * * * * * * * * * * * * * * * * * * * * * * * * * * * * * * * * * * * //

dimensions      [0 0 0 0 0 0 0];


internalField   nonuniform List<scalar> 
26400
(
0.000579149
0.00057857
0.000577412
0.000575677
0.000573368
0.00057049
0.000567045
0.000563042
0.000558484
0.000553381
0.000547741
0.000541571
0.000534884
0.000527688
0.000519997
0.000511822
0.000503178
0.000494079
0.00048454
0.000474578
0.000464211
0.000453457
0.000442337
0.000430873
0.000419088
0.000407007
0.000394659
0.000382075
0.000369288
0.000356337
0.000343275
0.000330061
0.000316712
0.000303253
0.000289714
0.000276128
0.000262492
0.00024883
0.000235174
0.000221537
0.000207916
0.000194301
0.000180685
0.000167056
0.000153401
0.000139707
0.000125963
0.000112161
9.83132e-05
8.44631e-05
7.07243e-05
5.73335e-05
4.38702e-05
3.10787e-05
2.07136e-05
1.74323e-05
1.25576e-05
7.51801e-06
3.3476e-06
2.26321e-06
0.000585722
0.000585128
0.000583939
0.000582157
0.000579787
0.000576831
0.000573296
0.000569187
0.000564512
0.000559278
0.000553494
0.000547171
0.000540319
0.000532949
0.000525075
0.000516709
0.000507866
0.000498562
0.000488812
0.000478635
0.000468048
0.000457072
0.000445728
0.000434039
0.000422028
0.000409724
0.000397154
0.00038435
0.000371348
0.000358187
0.000344916
0.000331499
0.000317954
0.00030431
0.000290597
0.00027685
0.000263065
0.000249269
0.000235496
0.000221756
0.000208045
0.000194358
0.000180688
0.000167026
0.000153363
0.000139688
0.000125994
0.000112281
9.85697e-05
8.49307e-05
7.15488e-05
5.79716e-05
4.44193e-05
3.1531e-05
2.10046e-05
1.7624e-05
1.25118e-05
7.2529e-06
3.01362e-06
2.08637e-06
0.000593901
0.000593286
0.000592055
0.000590211
0.000587758
0.000584701
0.000581045
0.000576798
0.000571967
0.000566561
0.00056059
0.000554065
0.000546999
0.000539402
0.000531291
0.000522677
0.000513579
0.000504011
0.000493991
0.000483539
0.000472673
0.000461415
0.000449788
0.000437814
0.000425521
0.000412935
0.000400088
0.000387011
0.000373743
0.000360322
0.000346796
0.00033313
0.000319348
0.000305478
0.000291554
0.000277611
0.000263648
0.000249691
0.000235777
0.000221912
0.000208094
0.00019432
0.000180584
0.00016688
0.0001532
0.000139536
0.000125883
0.00011224
9.86277e-05
8.51052e-05
7.18397e-05
5.837e-05
4.4914e-05
3.20761e-05
2.14985e-05
1.79921e-05
1.2544e-05
7.00404e-06
2.68548e-06
1.9053e-06
0.000602656
0.000602017
0.000600738
0.000598823
0.000596276
0.000593103
0.000589311
0.000584906
0.0005799
0.0005743
0.00056812
0.00056137
0.000554065
0.000546217
0.000537842
0.000528955
0.000519575
0.000509717
0.000499402
0.000488648
0.000477478
0.000465913
0.000453977
0.000441696
0.000429097
0.000416208
0.000403062
0.000389693
0.000376138
0.00036244
0.000348643
0.000334713
0.000320681
0.000306575
0.00029243
0.000278284
0.000264135
0.000250012
0.000235953
0.00022196
0.000208035
0.000194173
0.000180373
0.00016663
0.00015294
0.000139299
0.000125704
0.000112161
9.86878e-05
8.53323e-05
7.21932e-05
5.8878e-05
4.56244e-05
3.30105e-05
2.25369e-05
1.86637e-05
1.26727e-05
6.76935e-06
2.39462e-06
1.72398e-06
0.000611797
0.000611131
0.000609798
0.000607803
0.000605151
0.000601848
0.000597904
0.000593326
0.000588126
0.000582316
0.000575907
0.000568914
0.00056135
0.000553231
0.000544574
0.000535395
0.000525713
0.000515547
0.000504918
0.000493845
0.000482353
0.000470464
0.000458204
0.000445599
0.000432678
0.000419472
0.000406014
0.000392338
0.000378486
0.000364499
0.000350421
0.000336218
0.000321927
0.000307578
0.000293207
0.000278852
0.000264512
0.00025022
0.000236013
0.000221891
0.000207855
0.000193905
0.00018004
0.000166258
0.000152558
0.000138941
0.000125411
0.000111984
9.8699e-05
8.56538e-05
7.25052e-05
5.93333e-05
4.63876e-05
3.43007e-05
2.45115e-05
1.96883e-05
1.28438e-05
6.5274e-06
2.19133e-06
1.54515e-06
0.000621315
0.000620618
0.000619222
0.000617135
0.000614362
0.000610914
0.000606799
0.00060203
0.000596618
0.000590577
0.000583921
0.000576664
0.000568823
0.000560415
0.000551456
0.000541967
0.000531966
0.000521474
0.000510512
0.000499104
0.000487273
0.000475044
0.000462443
0.0004495
0.000436243
0.000422706
0.000408921
0.000394927
0.000380765
0.000366479
0.000352109
0.000337626
0.000323068
0.00030847
0.000293865
0.000279297
0.000264764
0.000250299
0.000235941
0.000221687
0.000207541
0.000193503
0.000179574
0.000165755
0.000152048
0.000138457
0.000124989
0.000111661
9.85055e-05
8.55787e-05
7.25839e-05
5.96473e-05
4.71133e-05
3.59434e-05
2.89347e-05
2.09744e-05
1.29453e-05
6.22408e-06
1.98459e-06
1.36433e-06
0.000631256
0.000630519
0.000629046
0.000626845
0.00062393
0.000620312
0.000616005
0.000611021
0.000605376
0.000599083
0.000592159
0.000584619
0.000576482
0.000567764
0.000558487
0.000548668
0.00053833
0.000527494
0.000516184
0.000504423
0.000492236
0.000479651
0.000466696
0.000453399
0.000439792
0.000425909
0.000411786
0.000397462
0.000382978
0.000368381
0.00035371
0.000338937
0.000324106
0.000309251
0.000294409
0.000279623
0.000264893
0.000250253
0.000235743
0.000221357
0.000207099
0.000192972
0.00017898
0.000165125
0.000151413
0.000137852
0.000124459
0.000111267
9.834e-05
8.54153e-05
7.2509e-05
5.97148e-05
4.73365e-05
3.62742e-05
2.92471e-05
2.10781e-05
1.27409e-05
5.8256e-06
1.76378e-06
1.18174e-06
0.000641708
0.000640918
0.000639337
0.000636967
0.000633869
0.000630051
0.000625524
0.000620302
0.000614401
0.000607837
0.000600624
0.000592782
0.000584329
0.000575285
0.000565669
0.000555503
0.00054481
0.000533613
0.000521937
0.000509806
0.000497248
0.000484291
0.000470964
0.000457299
0.000443328
0.000429086
0.000414611
0.000399943
0.000385125
0.000370206
0.000355224
0.000340152
0.000325039
0.00030992
0.000294835
0.000279827
0.000264898
0.000250084
0.000235413
0.00022089
0.000206518
0.000192302
0.000178247
0.000164358
0.00015064
0.000137105
0.000123769
0.000110664
9.78529e-05
8.50755e-05
7.23551e-05
5.97817e-05
4.76315e-05
3.67241e-05
2.96334e-05
2.1239e-05
1.25532e-05
5.4059e-06
1.53849e-06
9.98982e-07
0.000652256
0.000651442
0.000649812
0.000647372
0.000644131
0.000640098
0.00063534
0.000629867
0.000623694
0.00061684
0.000609323
0.000601161
0.000592374
0.000582984
0.000573012
0.000562482
0.000551416
0.00053984
0.00052778
0.000515263
0.000502318
0.000488973
0.000475259
0.000461211
0.000446861
0.000432246
0.000417405
0.000402381
0.000387218
0.000371965
0.00035666
0.00034128
0.000325875
0.000310483
0.000295145
0.000279907
0.000264772
0.000249778
0.000234948
0.000220289
0.000205806
0.000191504
0.000177389
0.000163469
0.000149753
0.000136254
0.00012299
0.000109991
9.72949e-05
8.4673e-05
7.21667e-05
5.98726e-05
4.80412e-05
3.73806e-05
3.01636e-05
2.14544e-05
1.23625e-05
4.94515e-06
1.30269e-06
8.16472e-07
0.000663006
0.000662164
0.000660479
0.000657958
0.00065461
0.000650446
0.000645483
0.000639736
0.000633274
0.000626112
0.00061827
0.000609769
0.000600631
0.000590877
0.000580531
0.000569617
0.000558162
0.00054619
0.00053373
0.00052081
0.00050746
0.000493711
0.000479596
0.000465149
0.000450406
0.000435405
0.000420186
0.000404792
0.000389271
0.000373673
0.000358034
0.000342334
0.000326628
0.000310954
0.000295355
0.000279876
0.000264523
0.000249348
0.000234359
0.000219564
0.000204968
0.000190578
0.000176404
0.000162455
0.000148746
0.000135296
0.000122141
0.000109332
9.66835e-05
8.42065e-05
7.19457e-05
6.00141e-05
4.86763e-05
3.85408e-05
3.09061e-05
2.16894e-05
1.2154e-05
4.44441e-06
1.06354e-06
6.36996e-07
0.000674009
0.000673136
0.000671389
0.000668775
0.000665305
0.00066099
0.000655848
0.000649898
0.000643163
0.000635669
0.000627483
0.000618624
0.000609116
0.000598981
0.000588244
0.000576931
0.000565068
0.000552684
0.000539807
0.000526468
0.000512698
0.00049853
0.000483999
0.000469139
0.000453989
0.000438588
0.000422977
0.000407202
0.000391311
0.000375355
0.000359371
0.000343341
0.000327324
0.000311361
0.000295501
0.000279762
0.00026419
0.000248826
0.000233674
0.000218739
0.000204027
0.000189546
0.000175305
0.000161317
0.000147598
0.000134171
0.000121072
0.000108358
9.5847e-05
8.3567e-05
7.15887e-05
6.00865e-05
4.9502e-05
4.10293e-05
3.1783e-05
2.18322e-05
1.18701e-05
3.89532e-06
8.19196e-07
4.62003e-07
0.000685307
0.000684401
0.000682588
0.000679874
0.000676271
0.000671791
0.000666453
0.000660275
0.000653282
0.000645501
0.000636963
0.000627737
0.000617847
0.000607318
0.000596176
0.000584449
0.000572164
0.000559352
0.000546044
0.000532271
0.000518066
0.000503465
0.000488502
0.000473216
0.000457646
0.000441832
0.000425818
0.00040965
0.000393377
0.000377052
0.000360709
0.000344332
0.000327983
0.000311703
0.000295537
0.000279499
0.000263754
0.000248223
0.000232916
0.000217843
0.000203013
0.000188436
0.000174125
0.000160094
0.000146361
0.000132953
0.000119907
0.000107284
9.49064e-05
8.28065e-05
7.10535e-05
5.98062e-05
4.94505e-05
4.10404e-05
3.17429e-05
2.16786e-05
1.15084e-05
3.32567e-06
5.84531e-07
2.94642e-07
0.000696935
0.000695995
0.000694112
0.000691296
0.000687556
0.000682908
0.000677367
0.000670957
0.0006637
0.000655626
0.000646767
0.000637159
0.000626872
0.000615934
0.000604371
0.000592214
0.000579493
0.000566238
0.000552484
0.000538263
0.00052361
0.000508562
0.000493156
0.000477432
0.00046143
0.000445193
0.000428765
0.000412194
0.000395529
0.000378826
0.000362117
0.000345387
0.000328705
0.000312114
0.000295661
0.000279369
0.000263398
0.000247664
0.000232177
0.000216945
0.000201981
0.000187296
0.000172903
0.000158819
0.000145065
0.000131669
0.000118672
0.000106139
9.39039e-05
8.20079e-05
7.05327e-05
5.96391e-05
4.96434e-05
4.11505e-05
3.17169e-05
2.15273e-05
1.11716e-05
2.78581e-06
3.67403e-07
1.37323e-07
0.000708915
0.00070794
0.000705987
0.000703066
0.000699188
0.000694368
0.000688623
0.000681976
0.000674453
0.000666082
0.000656897
0.000646936
0.00063624
0.00062488
0.000612885
0.000600285
0.000587115
0.000573405
0.000559192
0.000544511
0.000529397
0.000513891
0.00049803
0.000481857
0.000465413
0.000448742
0.000431892
0.000414909
0.000397845
0.000380755
0.000363667
0.000346572
0.000329539
0.00031261
0.00029583
0.000279308
0.000263117
0.000247176
0.000231498
0.000216096
0.000200984
0.000186175
0.000171686
0.000157536
0.000143746
0.000130348
0.000117387
0.00010493
9.28252e-05
8.11334e-05
6.9976e-05
5.96133e-05
5.064e-05
4.13682e-05
3.16397e-05
2.13585e-05
1.08867e-05
2.39805e-06
1.87125e-07
3.38201e-09
0.000721259
0.000720249
0.000718227
0.000715202
0.000711186
0.000706194
0.000700246
0.000693363
0.000685574
0.000676906
0.000667396
0.000657082
0.000646006
0.000634216
0.000621781
0.000608732
0.000595105
0.000580934
0.000566255
0.000551106
0.000535525
0.000519553
0.00050323
0.0004866
0.000469706
0.000452594
0.000435312
0.00041791
0.00040044
0.000382957
0.000365488
0.000348026
0.000330648
0.000313395
0.000296316
0.000279517
0.000263068
0.00024689
0.000230997
0.000215402
0.000200121
0.000185169
0.000170563
0.000156324
0.000142477
0.000129054
0.0001161
0.000103684
9.16608e-05
8.009e-05
6.90861e-05
5.88893e-05
5.00447e-05
4.09081e-05
3.13287e-05
2.11756e-05
1.07043e-05
2.16743e-06
8.47222e-08
1.44445e-09
0.000733988
0.000732944
0.000730852
0.000727723
0.00072357
0.000718408
0.000712258
0.000705143
0.00069709
0.000688131
0.000678302
0.000667641
0.000656194
0.000644007
0.000631134
0.00061764
0.000603559
0.000588928
0.000573785
0.000558168
0.000542118
0.000525677
0.000508888
0.000491797
0.000474449
0.000456892
0.000439175
0.000421351
0.000403471
0.000385592
0.000367734
0.000349897
0.000332158
0.000314558
0.000297187
0.000280108
0.000263388
0.000246957
0.00023083
0.000215023
0.000199551
0.000184433
0.000169686
0.000155335
0.000141404
0.00012793
0.00011496
0.000102561
9.06031e-05
7.91426e-05
6.82856e-05
5.82484e-05
4.95159e-05
4.05405e-05
3.11648e-05
2.12135e-05
1.08175e-05
2.16399e-06
8.12659e-08
1.31902e-09
0.000747118
0.00074604
0.000743882
0.000740654
0.00073637
0.000731046
0.000724702
0.000717363
0.000709058
0.000699818
0.00068968
0.000678684
0.000666876
0.000654304
0.000641022
0.000627089
0.000612563
0.000597484
0.00058189
0.00056582
0.000549315
0.00053242
0.000515177
0.000497634
0.000479838
0.00046184
0.000443692
0.000425447
0.00040716
0.000388889
0.000370647
0.000352438
0.000334344
0.000316408
0.000298716
0.000281329
0.000264313
0.000247604
0.000231219
0.000215173
0.000199485
0.000184172
0.000169255
0.000154758
0.00014071
0.000127146
0.000114118
0.000101697
8.9783e-05
7.84184e-05
6.76967e-05
5.78097e-05
4.91763e-05
4.03873e-05
3.12852e-05
2.1652e-05
1.14347e-05
2.44906e-06
9.31795e-08
1.48068e-09
0.000760643
0.000759534
0.000757316
0.000753997
0.000749593
0.000744119
0.000737599
0.000730055
0.000721518
0.000712021
0.0007016
0.000690296
0.000678155
0.000665227
0.000651565
0.000637229
0.00062228
0.000606773
0.000590746
0.000574239
0.000557294
0.000539952
0.000522262
0.000504272
0.000486034
0.000467603
0.000449034
0.000430386
0.000411722
0.00039311
0.000374515
0.000355949
0.000337499
0.000319239
0.000301223
0.00028351
0.00026617
0.000249153
0.000232478
0.000216161
0.00020022
0.000184674
0.000169545
0.000154856
0.000140635
0.000126917
0.000113745
0.00010118
8.93059e-05
7.79962e-05
6.73511e-05
5.75486e-05
4.89545e-05
4.03339e-05
3.15551e-05
2.23675e-05
1.25078e-05
3.20348e-06
1.43806e-07
2.45724e-09
0.000774544
0.000773409
0.000771138
0.000767741
0.000763232
0.00075763
0.000750956
0.000743235
0.000734497
0.000724776
0.000714109
0.000702539
0.00069011
0.000676872
0.00066288
0.000648193
0.000632872
0.000616986
0.00060058
0.000583694
0.000566363
0.000548633
0.000530554
0.000512175
0.000493548
0.000474727
0.000455768
0.000436728
0.00041767
0.000398657
0.000379708
0.000360792
0.000342001
0.000323406
0.000305059
0.000287018
0.000269345
0.000252005
0.000235016
0.000218394
0.000202157
0.000186325
0.000170919
0.000155962
0.000141486
0.000127524
0.000114125
0.000101348
8.92841e-05
7.78357e-05
6.70965e-05
5.72232e-05
4.85207e-05
3.99509e-05
3.14151e-05
2.26919e-05
1.35117e-05
4.51746e-06
3.6155e-07
8.07797e-09
0.000788781
0.000787625
0.000785311
0.00078185
0.000777257
0.000771551
0.000764752
0.000756888
0.000747987
0.000738085
0.000727218
0.00071543
0.000702766
0.000689276
0.000675016
0.000660042
0.000644419
0.000628212
0.000611493
0.000594285
0.000576633
0.000558583
0.000540185
0.000521487
0.00050254
0.000483398
0.000464116
0.000444752
0.000425366
0.000406021
0.000386729
0.000367472
0.00034836
0.000329442
0.000310768
0.000292393
0.000274376
0.000256707
0.000239397
0.000222462
0.000205917
0.000189779
0.000174066
0.000158801
0.000144012
0.000129731
0.000116001
0.000102879
9.04439e-05
7.87128e-05
6.77041e-05
5.75573e-05
4.8495e-05
3.98093e-05
3.13775e-05
2.30167e-05
1.46262e-05
6.7008e-06
1.51666e-06
4.95801e-08
0.000803406
0.000802234
0.00079989
0.000796385
0.000791733
0.000785954
0.000779068
0.000771102
0.000762086
0.000752054
0.000741045
0.000729099
0.000716265
0.000702592
0.000688136
0.000672955
0.000657113
0.000640677
0.000623718
0.000606277
0.000588397
0.000570121
0.000551497
0.000532573
0.000513399
0.000494028
0.000474515
0.000454919
0.000435299
0.000415723
0.0003962
0.000376717
0.000357381
0.000338238
0.000319332
0.000300714
0.000282436
0.000264552
0.00024703
0.000229882
0.00021312
0.000196759
0.000180813
0.000165301
0.000150246
0.000135677
0.000121626
0.000108138
9.52837e-05
8.3156e-05
7.17629e-05
6.12068e-05
5.16163e-05
4.30691e-05
3.49386e-05
2.71283e-05
1.93804e-05
1.20212e-05
5.32392e-06
3.01816e-07
0.000817812
0.000816552
0.000814031
0.00081026
0.000805257
0.00079904
0.000791635
0.000783069
0.000773375
0.000762593
0.000750764
0.000737936
0.00072416
0.000709495
0.000694001
0.000677747
0.000660802
0.000643279
0.000625217
0.000606662
0.000587659
0.000568257
0.000548507
0.000528461
0.000508177
0.000487712
0.00046713
0.000446497
0.000425881
0.000405357
0.000384947
0.000364632
0.000344522
0.000324665
0.000305118
0.000285939
0.000267191
0.000248851
0.000230933
0.000213448
0.000196407
0.000179825
0.000163714
0.000148093
0.000132987
0.000118434
0.000104501
9.12794e-05
7.88793e-05
6.72422e-05
5.65286e-05
4.69739e-05
3.8858e-05
3.11741e-05
2.3847e-05
1.6781e-05
9.84184e-06
3.20039e-06
2.74897e-07
6.25123e-09
0.000831801
0.000830441
0.000827718
0.000823648
0.000818246
0.000811534
0.00080354
0.000794296
0.000783838
0.000772209
0.000759457
0.000745636
0.000730807
0.000715034
0.000698388
0.000680948
0.000662866
0.000644187
0.000624955
0.000605219
0.00058503
0.000564441
0.000543512
0.000522302
0.000500875
0.0004793
0.000457646
0.00043599
0.000414412
0.000392996
0.000371776
0.000350722
0.00032995
0.00030952
0.000289496
0.000269947
0.000250868
0.000232274
0.000214181
0.000196604
0.00017956
0.00016307
0.000147157
0.000131852
0.000117195
0.000103237
9.00464e-05
7.7712e-05
6.61704e-05
5.54315e-05
4.59166e-05
3.81153e-05
3.09798e-05
2.43873e-05
1.8216e-05
1.23352e-05
6.65865e-06
1.65373e-06
1.26698e-07
2.62931e-09
0.00084546
0.000844001
0.000841081
0.000836714
0.000830919
0.000823719
0.000815144
0.000805227
0.000794011
0.000781543
0.000767876
0.000753071
0.000737196
0.000720326
0.000702544
0.000684055
0.000664902
0.000645132
0.000624793
0.000603941
0.000582633
0.00056093
0.000538899
0.000516608
0.00049413
0.000471542
0.000448925
0.000426365
0.000403951
0.000381781
0.000359901
0.000338264
0.000316996
0.000296165
0.000275847
0.000256062
0.000236825
0.000218152
0.000200058
0.000182559
0.000165672
0.000149418
0.000133823
0.000118924
0.00010477
9.1433e-05
7.9019e-05
6.74606e-05
5.67217e-05
4.67592e-05
3.8229e-05
3.17372e-05
2.57827e-05
2.02456e-05
1.50007e-05
9.92867e-06
5.01374e-06
9.88201e-07
7.18218e-08
1.37601e-09
0.000858732
0.000857179
0.00085407
0.000849422
0.000843252
0.000835587
0.000826455
0.000815896
0.000803951
0.000790673
0.00077612
0.00076036
0.000743469
0.000725533
0.000706816
0.000687358
0.000667207
0.000646416
0.000625041
0.000603142
0.000580786
0.000558043
0.000534987
0.000511697
0.000488256
0.000464751
0.00044127
0.000417911
0.000394771
0.000371958
0.00034953
0.000327424
0.000305773
0.000284655
0.000264129
0.000244211
0.00022492
0.00020627
0.000188277
0.000170959
0.000154334
0.000138425
0.000123262
0.000108884
9.53444e-05
8.27206e-05
7.11237e-05
6.03718e-05
5.03993e-05
4.11289e-05
3.33855e-05
2.78273e-05
2.26748e-05
1.78304e-05
1.32068e-05
8.71458e-06
4.35618e-06
9.43103e-07
8.01301e-08
2.09376e-09
0.000871535
0.000869895
0.000866611
0.000861699
0.00085518
0.000847079
0.000837427
0.000826263
0.00081363
0.000799584
0.000784185
0.000767503
0.000749623
0.00073087
0.000711284
0.000690916
0.000669825
0.000648072
0.000625721
0.00060284
0.0005795
0.000555781
0.000531768
0.000507554
0.000483233
0.000458901
0.000434657
0.000410601
0.00038684
0.000363487
0.00034061
0.000318125
0.000296175
0.000274848
0.000254184
0.000234201
0.000214916
0.000196344
0.0001785
0.0001614
0.000145061
0.000129507
0.000114767
0.000100883
8.79102e-05
7.59278e-05
6.50363e-05
5.4961e-05
4.56196e-05
3.68763e-05
2.97419e-05
2.49451e-05
2.03917e-05
1.60898e-05
1.19993e-05
8.02706e-06
4.1346e-06
1.1118e-06
1.4911e-07
8.97641e-09
0.000883784
0.000882061
0.000878613
0.000873457
0.000866616
0.000858114
0.000847986
0.000836264
0.000822988
0.00080823
0.000792044
0.000774476
0.000755905
0.00073637
0.000715933
0.000694668
0.000672656
0.000649981
0.000626714
0.000602904
0.000578623
0.000553967
0.000529037
0.000503945
0.000478805
0.000453727
0.000428812
0.00040416
0.000379875
0.000356066
0.000332803
0.000309993
0.000287789
0.000266288
0.000245517
0.000225498
0.00020625
0.000187785
0.000170117
0.000153259
0.000137228
0.000122047
0.00010775
9.43804e-05
8.2008e-05
7.0743e-05
6.04026e-05
5.09123e-05
4.21687e-05
3.40147e-05
2.73804e-05
2.28949e-05
1.86296e-05
1.47255e-05
1.11656e-05
7.83169e-06
4.56948e-06
1.82708e-06
4.86965e-07
7.87789e-08
0.000895424
0.000893618
0.000890013
0.000884628
0.000877486
0.000868621
0.000858072
0.000845761
0.000831843
0.000816477
0.000799723
0.000781662
0.000762391
0.000742016
0.000720651
0.000698417
0.000675449
0.000651888
0.000627892
0.000603224
0.000578023
0.000552426
0.000526574
0.000500614
0.000474702
0.000448976
0.000423515
0.000398403
0.000373732
0.000349571
0.000325966
0.000302858
0.00028042
0.000258745
0.000237871
0.000217831
0.000198644
0.000180311
0.000162835
0.000146224
0.000130494
0.00011567
0.000101788
8.88882e-05
7.70184e-05
6.62859e-05
5.64604e-05
4.7489e-05
3.92568e-05
3.20496e-05
2.59797e-05
2.09268e-05
1.67391e-05
1.32796e-05
1.04156e-05
8.01396e-06
5.93533e-06
4.02758e-06
2.18693e-06
8.38867e-07
0.000906328
0.00090445
0.000900691
0.000895075
0.000887628
0.000878387
0.000867398
0.000854713
0.000840405
0.00082455
0.000807235
0.000788557
0.000768622
0.000747547
0.000725462
0.000702506
0.000678832
0.000654598
0.000629619
0.00060402
0.000577932
0.000551493
0.000524847
0.000498149
0.000471563
0.000445225
0.000419208
0.000393586
0.000368439
0.000343851
0.000319807
0.000296384
0.000273698
0.000251812
0.000230801
0.000210758
0.000191692
0.000173528
0.000156263
0.000139903
0.000124468
0.000109996
9.65568e-05
8.41895e-05
7.28434e-05
6.2477e-05
5.3053e-05
4.45457e-05
3.69404e-05
3.02323e-05
2.45543e-05
1.98004e-05
1.58569e-05
1.26048e-05
9.91986e-06
7.6741e-06
5.73214e-06
3.93959e-06
2.18172e-06
8.65523e-07
0.000916976
0.000915028
0.00091113
0.000905307
0.000897589
0.000888016
0.000876638
0.000863514
0.000848716
0.000832322
0.000814426
0.000795128
0.000774544
0.000752799
0.000730036
0.000706413
0.00068211
0.000656983
0.000631144
0.000604717
0.000577834
0.000550636
0.000523275
0.000495915
0.00046873
0.000441858
0.000415366
0.000389323
0.000363808
0.000338902
0.000314638
0.000291048
0.000268247
0.000246303
0.000225293
0.000205311
0.000186333
0.000168354
0.000151305
0.000135187
0.000120017
0.000105834
9.27705e-05
8.07686e-05
6.97757e-05
5.97461e-05
5.06434e-05
4.24419e-05
3.51304e-05
2.87295e-05
2.33386e-05
1.88379e-05
1.51083e-05
1.20288e-05
9.48034e-06
7.34687e-06
5.50874e-06
3.82871e-06
2.17177e-06
8.90831e-07
0.000927078
0.000925063
0.000921032
0.00091501
0.00090703
0.000897134
0.000885377
0.00087182
0.00085654
0.000839621
0.000821159
0.000801263
0.000780052
0.000757656
0.00073422
0.000709899
0.000684861
0.000658974
0.000632373
0.000605196
0.000577585
0.00054969
0.000521669
0.000493692
0.000465943
0.000438617
0.000411717
0.000385316
0.000359495
0.00033434
0.00030989
0.000286168
0.00026329
0.000241327
0.000220363
0.000200457
0.000181587
0.000163738
0.000146903
0.00013102
0.000116117
0.000102237
8.94853e-05
7.77962e-05
6.71108e-05
5.73788e-05
4.85584e-05
4.06134e-05
3.35022e-05
2.74286e-05
2.22988e-05
1.80084e-05
1.44477e-05
1.15057e-05
9.07124e-06
7.03673e-06
5.29345e-06
3.71219e-06
2.15225e-06
9.15202e-07
0.000936588
0.000934507
0.000930345
0.000924129
0.000915893
0.000905684
0.000893556
0.000879579
0.000863831
0.000846404
0.0008274
0.000806935
0.000785137
0.000762146
0.000738114
0.0007132
0.000687345
0.000660675
0.000633324
0.000605426
0.000577126
0.000548578
0.000519947
0.000491409
0.000463159
0.000435407
0.00040813
0.000381405
0.000355311
0.000329939
0.000305334
0.000281506
0.000258575
0.000236617
0.00021572
0.000195915
0.000177176
0.000159484
0.000142834
0.000127171
0.000112521
9.89349e-05
8.648e-05
7.50834e-05
6.46815e-05
5.52217e-05
4.66619e-05
3.89679e-05
3.21017e-05
2.62635e-05
2.13487e-05
1.72463e-05
1.3843e-05
1.10268e-05
8.69155e-06
6.73965e-06
5.07623e-06
3.58958e-06
2.13718e-06
9.38711e-07
0.000945532
0.000943386
0.000939095
0.000932687
0.000924199
0.00091368
0.000901189
0.000886798
0.00087059
0.000852664
0.000833128
0.000812107
0.00078974
0.000766184
0.000741617
0.000715956
0.00068934
0.000661941
0.000633886
0.000605311
0.000576364
0.000547203
0.000517999
0.000488939
0.000460227
0.000432085
0.000404467
0.000377448
0.000351111
0.000325549
0.000300813
0.000276902
0.000253941
0.000232007
0.000211198
0.00019151
0.000172911
0.000155377
0.000138895
0.000123467
0.000109072
9.57842e-05
8.36239e-05
7.25123e-05
6.23833e-05
5.31832e-05
4.48712e-05
3.74172e-05
3.07933e-05
2.51831e-05
2.04698e-05
1.65364e-05
1.32695e-05
1.05621e-05
8.31638e-06
6.44269e-06
4.85527e-06
3.45569e-06
2.11121e-06
9.59041e-07
0.000953955
0.000951745
0.000947325
0.000940725
0.000931985
0.000921157
0.000908303
0.000893499
0.000876835
0.000858412
0.000838345
0.000816765
0.000793815
0.000769651
0.000744438
0.000718104
0.000690806
0.00066273
0.000634012
0.000604796
0.000575233
0.000545489
0.000515742
0.000486189
0.000457045
0.000428548
0.000400619
0.000373335
0.00034678
0.000321052
0.000296209
0.000272238
0.000249269
0.000227385
0.000206689
0.00018714
0.000168703
0.00015135
0.000135067
0.000119856
0.000105695
9.27236e-05
8.08592e-05
7.00259e-05
6.01586e-05
5.12034e-05
4.3119e-05
3.58803e-05
2.95018e-05
2.41211e-05
1.96075e-05
1.5842e-05
1.27121e-05
1.01127e-05
7.95094e-06
6.14613e-06
4.6256e-06
3.30887e-06
2.07452e-06
9.74199e-07
0.000961907
0.00095963
0.000955079
0.000948286
0.000939291
0.00092815
0.000914931
0.000899713
0.00088259
0.00086367
0.000843077
0.000820948
0.000797443
0.00077274
0.000746804
0.000719771
0.000691794
0.000663042
0.000633673
0.00060383
0.00057367
0.000543363
0.000513095
0.000483072
0.000453521
0.000424697
0.000396485
0.00036896
0.000342208
0.000316334
0.000291403
0.000267393
0.000244441
0.00022265
0.000202082
0.000182689
0.000164428
0.000147272
0.000131208
0.000116242
0.00010237
8.96885e-05
7.81066e-05
6.75445e-05
5.79346e-05
4.92197e-05
4.1349e-05
3.42601e-05
2.81993e-05
2.30653e-05
1.87508e-05
1.51461e-05
1.21446e-05
9.64752e-06
7.56829e-06
5.83401e-06
4.38172e-06
3.14359e-06
2.01187e-06
9.81201e-07
0.000969435
0.00096709
0.000962404
0.000955411
0.000946156
0.000934696
0.000921103
0.000905462
0.000887873
0.000868448
0.000847316
0.00082462
0.000800517
0.000775178
0.000748577
0.000720869
0.000692221
0.000662811
0.000632805
0.000602351
0.000571608
0.000540752
0.000509978
0.000479503
0.000449567
0.000420443
0.000391971
0.000364225
0.000337296
0.000311291
0.000286289
0.000262251
0.000239316
0.000217673
0.000197268
0.000178054
0.000159991
0.00014305
0.000127219
0.000112508
9.89543e-05
8.65792e-05
7.52895e-05
6.50049e-05
5.56582e-05
4.71956e-05
3.9572e-05
3.27322e-05
2.69091e-05
2.19912e-05
1.78666e-05
1.44242e-05
1.15573e-05
9.16887e-06
7.17507e-06
5.50955e-06
4.12074e-06
2.95761e-06
1.92889e-06
9.7877e-07
0.000976584
0.000974169
0.000969343
0.000962144
0.000952618
0.000940828
0.00092685
0.000910774
0.000892706
0.000872767
0.000851095
0.000827842
0.000803176
0.000777124
0.000749821
0.000721419
0.000692083
0.000661997
0.000631362
0.000600302
0.000568983
0.000537587
0.000506318
0.000475403
0.000445099
0.000415698
0.000386988
0.000359044
0.000331954
0.000305833
0.000280775
0.000256739
0.000233901
0.000212399
0.000192166
0.000173146
0.000155298
0.000138593
0.000123021
0.000108598
9.53762e-05
8.33192e-05
7.2331e-05
6.23315e-05
5.32548e-05
4.50515e-05
3.7685e-05
3.11155e-05
2.55467e-05
2.08561e-05
1.69267e-05
1.3648e-05
1.09178e-05
8.64147e-06
6.73874e-06
5.14944e-06
3.83092e-06
2.74475e-06
1.81737e-06
9.63053e-07
0.000983398
0.000980909
0.000975937
0.000968521
0.000958712
0.000946577
0.000932196
0.000915665
0.000897098
0.000876623
0.000854389
0.000830565
0.000805221
0.000778483
0.000750486
0.000721387
0.000691357
0.000660591
0.000629304
0.000597634
0.00056574
0.000533808
0.000502049
0.000470702
0.000440042
0.000410384
0.000381457
0.000353337
0.000326113
0.000299872
0.000274735
0.00025067
0.000228012
0.000206698
0.000186668
0.000167869
0.000150261
0.000133818
0.000118533
0.000104425
9.15638e-05
7.98424e-05
6.91679e-05
5.94624e-05
5.06626e-05
4.27223e-05
3.56126e-05
2.93436e-05
2.40539e-05
1.9609e-05
1.58906e-05
1.27913e-05
1.02104e-05
8.05627e-06
6.25437e-06
4.74987e-06
3.50682e-06
2.49991e-06
1.67536e-06
9.30243e-07
0.000989917
0.000987349
0.000982222
0.000974579
0.000964472
0.000951973
0.000937168
0.000920158
0.000901064
0.000880021
0.000857183
0.000832722
0.000806711
0.000779282
0.000750579
0.000720763
0.000690016
0.000658537
0.000626546
0.000594288
0.000561826
0.000529361
0.000497115
0.000465341
0.000434333
0.000404432
0.0003753
0.000347033
0.000319694
0.000293329
0.000268105
0.000244141
0.000221641
0.000200519
0.000180706
0.000162148
0.000144805
0.000128654
0.000113696
9.99658e-05
8.74677e-05
7.60903e-05
6.57395e-05
5.63386e-05
4.78261e-05
4.01522e-05
3.32581e-05
2.73802e-05
2.24067e-05
1.82254e-05
1.47295e-05
1.18172e-05
9.3931e-06
7.3718e-06
5.68365e-06
4.2775e-06
3.12091e-06
2.19886e-06
1.48028e-06
8.64299e-07
0.000996175
0.000993524
0.000988234
0.000980348
0.000969926
0.000957043
0.00094179
0.000924276
0.000904628
0.000882994
0.000859542
0.000834402
0.000807691
0.000779541
0.000750102
0.000719544
0.000688057
0.000655853
0.000623169
0.000590271
0.000557215
0.000524209
0.000491479
0.000459286
0.000427934
0.000397788
0.000368425
0.000339953
0.000312448
0.000285955
0.000260682
0.000236949
0.000214672
0.000193779
0.000174212
0.000155923
0.000138875
0.00012305
0.000108455
9.51383e-05
8.30284e-05
7.20139e-05
6.2002e-05
5.29197e-05
4.47114e-05
3.73402e-05
3.08025e-05
2.52651e-05
2.05998e-05
1.66916e-05
1.34323e-05
1.07206e-05
8.46666e-06
6.59136e-06
5.03042e-06
3.73581e-06
2.6777e-06
1.84686e-06
1.23002e-06
7.47798e-07
0.00100225
0.000999513
0.000994046
0.000985901
0.000975142
0.000961847
0.000946115
0.000928061
0.00090782
0.000885548
0.00086144
0.000835604
0.000808161
0.000779253
0.000749037
0.000717695
0.000685428
0.000652462
0.00061905
0.000585476
0.000551819
0.00051828
0.000485083
0.000452493
0.000420821
0.000390426
0.000360817
0.000332124
0.00030442
0.000277743
0.000252679
0.000229146
0.00020708
0.000186418
0.000167111
0.000149114
0.000132396
0.000116935
0.000102747
8.98639e-05
7.81539e-05
6.7509e-05
5.78405e-05
4.90804e-05
4.11754e-05
3.40723e-05
2.79872e-05
2.28345e-05
1.85048e-05
1.48889e-05
1.18817e-05
9.38715e-06