/*--------------------------------*- C++ -*----------------------------------*\
| =========                 |                                                 |
| \\      /  F ield         | OpenFOAM: The Open Source CFD Toolbox           |
|  \\    /   O peration     | Version:  v1906                                 |
|   \\  /    A nd           | Web:      www.OpenFOAM.com                      |
|    \\/     M anipulation  |                                                 |
\*---------------------------------------------------------------------------*/
FoamFile
{
    version     2.0;
    format      ascii;
    class       volScalarField;
    location    "2.83";
    object      H2O;
}
// * * * * * * * * * * * * * * * * * * * * * * * * * * * * * * * * * * * * * //

dimensions      [0 0 0 0 0 0 0];


internalField   nonuniform List<scalar> 
26400
(
0.111566
0.111562
0.111553
0.111539
0.111521
0.111498
0.111471
0.111439
0.111403
0.111362
0.111316
0.111266
0.111211
0.111151
0.111087
0.111017
0.110943
0.110864
0.11078
0.110691
0.110597
0.110498
0.110394
0.110285
0.11017
0.11005
0.109925
0.109794
0.109657
0.109515
0.109366
0.109211
0.109051
0.108884
0.108711
0.108532
0.108346
0.108154
0.107955
0.10775
0.107538
0.10732
0.107094
0.106861
0.106619
0.106368
0.106106
0.105833
0.105545
0.105241
0.104916
0.104566
0.104188
0.103778
0.103334
0.102873
0.10239
0.10194
0.101583
0.101329
0.111588
0.111584
0.111574
0.111561
0.111542
0.111519
0.111492
0.111459
0.111422
0.111381
0.111334
0.111283
0.111227
0.111167
0.111101
0.111031
0.110955
0.110875
0.110789
0.110699
0.110603
0.110503
0.110396
0.110285
0.110168
0.110046
0.109918
0.109785
0.109645
0.1095
0.109349
0.109191
0.109027
0.108857
0.10868
0.108497
0.108308
0.108112
0.107909
0.107699
0.107483
0.10726
0.10703
0.106792
0.106545
0.106289
0.106023
0.105745
0.105453
0.105144
0.104814
0.104461
0.104081
0.103667
0.103217
0.102748
0.102255
0.101796
0.10143
0.101166
0.111616
0.111611
0.111602
0.111588
0.111569
0.111546
0.111518
0.111485
0.111447
0.111405
0.111357
0.111305
0.111248
0.111187
0.11112
0.111048
0.110971
0.110889
0.110802
0.110709
0.110612
0.110509
0.1104
0.110287
0.110167
0.110042
0.109912
0.109775
0.109633
0.109485
0.10933
0.109168
0.109001
0.108827
0.108646
0.108459
0.108265
0.108065
0.107857
0.107643
0.107422
0.107195
0.106959
0.106717
0.106465
0.106204
0.105933
0.10565
0.105353
0.10504
0.104706
0.10435
0.103966
0.103548
0.103092
0.102615
0.102113
0.101645
0.101271
0.100997
0.111645
0.111641
0.111631
0.111617
0.111598
0.111574
0.111545
0.111512
0.111474
0.111431
0.111382
0.111329
0.111271
0.111208
0.11114
0.111067
0.110988
0.110905
0.110816
0.110721
0.110622
0.110516
0.110406
0.11029
0.110168
0.11004
0.109906
0.109767
0.109621
0.10947
0.109311
0.109146
0.108974
0.108797
0.108612
0.108421
0.108223
0.108018
0.107805
0.107586
0.107361
0.107128
0.106888
0.10664
0.106383
0.106117
0.105841
0.105553
0.105251
0.104933
0.104596
0.104237
0.103849
0.103427
0.102965
0.10248
0.101969
0.10149
0.101106
0.100825
0.111676
0.111671
0.111662
0.111647
0.111628
0.111604
0.111575
0.111541
0.111502
0.111458
0.111409
0.111355
0.111296
0.111231
0.111162
0.111087
0.111007
0.110922
0.110831
0.110735
0.110633
0.110526
0.110413
0.110294
0.110169
0.110039
0.109902
0.10976
0.109611
0.109456
0.109294
0.109125
0.108949
0.108767
0.108579
0.108383
0.10818
0.107971
0.107754
0.10753
0.1073
0.107062
0.106816
0.106563
0.106301
0.10603
0.105748
0.105455
0.105148
0.104824
0.104483
0.104121
0.10373
0.103304
0.102837
0.102343
0.101823
0.101333
0.100936
0.10065
0.111708
0.111703
0.111694
0.111679
0.111659
0.111635
0.111605
0.111571
0.111531
0.111487
0.111437
0.111382
0.111322
0.111256
0.111185
0.111109
0.111028
0.110941
0.110848
0.11075
0.110646
0.110536
0.110421
0.1103
0.110172
0.110039
0.1099
0.109754
0.109602
0.109443
0.109277
0.109105
0.108925
0.108739
0.108546
0.108346
0.108139
0.107924
0.107703
0.107474
0.107238
0.106995
0.106745
0.106486
0.106218
0.105942
0.105654
0.105355
0.105043
0.104715
0.10437
0.104004
0.10361
0.103182
0.102716
0.102208
0.101679
0.101175
0.100763
0.100472
0.111741
0.111736
0.111727
0.111712
0.111692
0.111667
0.111637
0.111602
0.111562
0.111517
0.111466
0.11141
0.111349
0.111282
0.11121
0.111133
0.11105
0.110961
0.110867
0.110767
0.110661
0.110549
0.110431
0.110307
0.110177
0.110041
0.109899
0.10975
0.109594
0.109432
0.109263
0.109086
0.108903
0.108712
0.108515
0.10831
0.108098
0.107879
0.107652
0.107419
0.107178
0.106929
0.106673
0.106409
0.106136
0.105853
0.10556
0.105255
0.104936
0.104604
0.104255
0.103884
0.103487
0.103056
0.102588
0.102075
0.101535
0.101016
0.100587
0.100292
0.111775
0.11177
0.11176
0.111746
0.111726
0.111701
0.11167
0.111635
0.111594
0.111548
0.111497
0.11144
0.111378
0.111311
0.111237
0.111158
0.111074
0.110984
0.110888
0.110786
0.110678
0.110564
0.110443
0.110317
0.110184
0.110045
0.1099
0.109748
0.109589
0.109423
0.10925
0.109069
0.108882
0.108687
0.108485
0.108276
0.108059
0.107834
0.107603
0.107364
0.107118
0.106864
0.106602
0.106332
0.106053
0.105765
0.105465
0.105155
0.10483
0.104492
0.104138
0.103763
0.103362
0.102928
0.102457
0.101941
0.101392
0.100856
0.100408
0.100111
0.111811
0.111806
0.111796
0.111781
0.111761
0.111736
0.111705
0.111669
0.111628
0.111582
0.11153
0.111472
0.111409
0.11134
0.111266
0.111186
0.1111
0.111008
0.11091
0.110807
0.110697
0.11058
0.110458
0.110329
0.110194
0.110052
0.109903
0.109748
0.109586
0.109417
0.10924
0.109055
0.108863
0.108664
0.108457
0.108243
0.108021
0.107792
0.107555
0.107311
0.107059
0.1068
0.106532
0.106256
0.105971
0.105676
0.105371
0.105054
0.104724
0.10438
0.10402
0.10364
0.103235
0.102798
0.102324
0.101806
0.101249
0.100697
0.100228
0.0999301
0.111849
0.111844
0.111833
0.111818
0.111798
0.111772
0.111741
0.111705
0.111664
0.111617
0.111564
0.111506
0.111442
0.111372
0.111297
0.111216
0.111128
0.111035
0.110936
0.11083
0.110718
0.1106
0.110475
0.110344
0.110206
0.110061
0.10991
0.109751
0.109586
0.109413
0.109232
0.109043
0.108847
0.108644
0.108432
0.108213
0.107986
0.107751
0.107509
0.10726
0.107003
0.106737
0.106464
0.106182
0.10589
0.105589
0.105277
0.104952
0.104617
0.104267
0.103901
0.103516
0.103106
0.102665
0.102189
0.101669
0.101107
0.100539
0.100047
0.0997524
0.111888
0.111883
0.111872
0.111857
0.111836
0.11181
0.111779
0.111743
0.111701
0.111653
0.1116
0.111542
0.111477
0.111406
0.11133
0.111248
0.111159
0.111064
0.110963
0.110856
0.110742
0.110622
0.110495
0.110362
0.110221
0.110074
0.109919
0.109758
0.109589
0.109412
0.109228
0.109035
0.108835
0.108627
0.108411
0.108187
0.107954
0.107715
0.107467
0.107212
0.106949
0.106677
0.106397
0.106108
0.10581
0.105503
0.105184
0.104853
0.104511
0.104155
0.103783
0.103392
0.102977
0.102532
0.102053
0.101532
0.100966
0.100383
0.0998666
0.0995795
0.111929
0.111924
0.111913
0.111898
0.111877
0.111851
0.111819
0.111782
0.11174
0.111692
0.111639
0.111579
0.111514
0.111443
0.111366
0.111282
0.111193
0.111097
0.110994
0.110886
0.11077
0.110648
0.110519
0.110383
0.11024
0.11009
0.109933
0.109768
0.109596
0.109416
0.109228
0.109031
0.108827
0.108615
0.108394
0.108165
0.107927
0.107682
0.107428
0.107167
0.106898
0.10662
0.106333
0.106038
0.105733
0.105418
0.105092
0.104755
0.104406
0.104043
0.103665
0.103268
0.102848
0.1024
0.101919
0.101395
0.100825
0.10023
0.0996911
0.0994156
0.111971
0.111966
0.111955
0.11194
0.111919
0.111893
0.111861
0.111824
0.111781
0.111733
0.111679
0.111619
0.111554
0.111482
0.111404
0.11132
0.111229
0.111132
0.111029
0.110919
0.110802
0.110678
0.110547
0.110409
0.110264
0.110112
0.109952
0.109784
0.109609
0.109425
0.109234
0.109033
0.108824
0.108608
0.108382
0.108148
0.107905
0.107654
0.107395
0.107127
0.106852
0.106567
0.106274
0.105971
0.105659
0.105337
0.105004
0.104659
0.104302
0.103932
0.103547
0.103144
0.102718
0.102267
0.101784
0.101259
0.100684
0.10008
0.0995218
0.0992627
0.112015
0.11201
0.111999
0.111983
0.111962
0.111936
0.111904
0.111867
0.111824
0.111776
0.111722
0.111662
0.111596
0.111524
0.111445
0.111361
0.111269
0.111172
0.111067
0.110956
0.110838
0.110712
0.11058
0.11044
0.110293
0.110138
0.109976
0.109806
0.109628
0.109441
0.109246
0.109042
0.108829
0.108608
0.108378
0.108139
0.107891
0.107634
0.107369
0.107095
0.106812
0.106521
0.10622
0.10591
0.10559
0.10526
0.104919
0.104566
0.104202
0.103824
0.103432
0.103021
0.102589
0.102134
0.101649
0.101123
0.100545
0.0999311
0.0993626
0.0991223
0.11206
0.112055
0.112044
0.112029
0.112008
0.111981
0.111949
0.111912
0.11187
0.111821
0.111767
0.111707
0.111641
0.111569
0.11149
0.111405
0.111314
0.111215
0.11111
0.110998
0.110879
0.110753
0.110619
0.110478
0.110329
0.110173
0.110008
0.109835
0.109655
0.109465
0.109267
0.109059
0.108843
0.108617
0.108383
0.108139
0.107885
0.107623
0.107352
0.107072
0.106783
0.106484
0.106176
0.105858
0.10553
0.105191
0.104841
0.10448
0.104106
0.10372
0.10332
0.102902
0.102464
0.102004
0.101515
0.100986
0.100406
0.0997871
0.0992172
0.0989927
0.112106
0.112101
0.11209
0.112075
0.112054
0.112028
0.111996
0.111959
0.111917
0.111869
0.111815
0.111755
0.111689
0.111617
0.111539
0.111454
0.111362
0.111264
0.111159
0.111047
0.110927
0.1108
0.110666
0.110524
0.110374
0.110216
0.110049
0.109875
0.109692
0.1095
0.109299
0.109088
0.108868
0.108639
0.108401
0.108153
0.107894
0.107626
0.10735
0.107063
0.106767
0.106461
0.106146
0.105819
0.105483
0.105135
0.104776
0.104405
0.104022
0.103626
0.103217
0.102791
0.102346
0.10188
0.101387
0.100856
0.100276
0.0996569
0.0990871
0.0988624
0.112153
0.112148
0.112138
0.112122
0.112102
0.112076
0.112045
0.112008
0.111966
0.111918
0.111865
0.111806
0.11174
0.111669
0.111591
0.111507
0.111416
0.111318
0.111214
0.111102
0.110982
0.110856
0.110721
0.110579
0.110428
0.11027
0.110103
0.109927
0.109742
0.109549
0.109345
0.109132
0.10891
0.108678
0.108436
0.108183
0.107921
0.107648
0.107366
0.107074
0.106772
0.10646
0.106136
0.105802
0.105456
0.105099
0.10473
0.104349
0.103955
0.103549
0.10313
0.102695
0.102242
0.101771
0.101274
0.100742
0.100164
0.0995498
0.0989718
0.0987293
0.112201
0.112196
0.112186
0.11217
0.11215
0.112125
0.112094
0.112058
0.112017
0.11197
0.111918
0.111859
0.111795
0.111725
0.111648
0.111565
0.111475
0.111379
0.111275
0.111164
0.111046
0.11092
0.110786
0.110645
0.110495
0.110336
0.110169
0.109993
0.109808
0.109614
0.109409
0.109195
0.108971
0.108737
0.108493
0.108238
0.107972
0.107696
0.10741
0.107113
0.106805
0.106486
0.106156
0.105814
0.10546
0.105093
0.104714
0.104321
0.103915
0.103497
0.103064
0.102618
0.102155
0.101675
0.101172
0.100639
0.100064
0.0994551
0.0988689
0.0985912
0.112248
0.112243
0.112234
0.112219
0.112199
0.112175
0.112145
0.11211
0.11207
0.112024
0.111973
0.111916
0.111853
0.111785
0.11171
0.111628
0.111541
0.111446
0.111344
0.111235
0.111118
0.110994
0.110862
0.110722
0.110573
0.110416
0.11025
0.110075
0.109891
0.109698
0.109494
0.10928
0.109056
0.108822
0.108577
0.108321
0.108054
0.107777
0.107488
0.107188
0.106876
0.106552
0.106216
0.105866
0.105503
0.105126
0.104734
0.104328
0.103907
0.103471
0.10302
0.102554
0.102073
0.101575
0.101058
0.100515
0.0999407
0.0993521
0.0987769
0.098444
0.112296
0.112291
0.112282
0.112267
0.112249
0.112225
0.112196
0.112162
0.112124
0.11208
0.11203
0.111975
0.111915
0.111848
0.111776
0.111697
0.111611
0.111519
0.11142
0.111314
0.1112
0.111078
0.110949
0.110811
0.110666
0.110512
0.110349
0.110177
0.109996
0.109805
0.109604
0.109393
0.109171
0.10894
0.108697
0.108443
0.108178
0.107901
0.107613
0.107313
0.107
0.106674
0.106334
0.10598
0.105611
0.105226
0.104825
0.104406
0.103969
0.103513
0.10304
0.102549
0.102041
0.101515
0.10097
0.100402
0.0998119
0.0992312
0.0986833
0.0982776
0.112342
0.112338
0.112329
0.112316
0.112298
0.112275
0.112248
0.112216
0.112179
0.112137
0.112089
0.112037
0.111979
0.111915
0.111846
0.11177
0.111688
0.1116
0.111504
0.111402
0.111292
0.111174
0.111049
0.110916
0.110775
0.110626
0.110468
0.110302
0.110126
0.109941
0.109746
0.109541
0.109326
0.1091
0.108865
0.108618
0.10836
0.10809
0.107809
0.107516
0.10721
0.106891
0.106558
0.106211
0.105847
0.105467
0.105068
0.104651
0.104213
0.103754
0.103274
0.102774
0.102255
0.101719
0.101164
0.100588
0.0999745
0.0993424
0.0986984
0.0981439
0.112386
0.112381
0.112372
0.112359
0.11234
0.112318
0.11229
0.112257
0.11222
0.112177
0.112128
0.112075
0.112015
0.11195
0.111878
0.1118
0.111716
0.111624
0.111524
0.111417
0.111302
0.11118
0.111049
0.110909
0.110761
0.110604
0.110439
0.110263
0.110078
0.109883
0.109677
0.109459
0.109231
0.108992
0.108742
0.108479
0.108204
0.107918
0.107619
0.107307
0.106981
0.106641
0.106284
0.105911
0.105519
0.105108
0.104676
0.104223
0.103748
0.103249
0.102727
0.102184
0.101622
0.101041
0.100442
0.0998276
0.0991944
0.0985371
0.0978829
0.0975838
0.112426
0.112421
0.112412
0.112398
0.112379
0.112356
0.112328
0.112294
0.112256
0.112212
0.112162
0.112107
0.112046
0.111978
0.111904
0.111823
0.111734
0.111638
0.111534
0.111421
0.111301
0.111172
0.111034
0.110887
0.110731
0.110566
0.110391
0.110205
0.110009
0.109803
0.109584
0.109354
0.109112
0.108858
0.108592
0.108313
0.108022
0.107718
0.107402
0.107071
0.106725
0.106364
0.105987
0.105592
0.105179
0.104746
0.104292
0.103817
0.103318
0.102794
0.10225
0.10169
0.101116
0.100533
0.0999465
0.0993589
0.0987659
0.0981598
0.097586
0.0973342
0.112462
0.112458
0.112448
0.112434
0.112415
0.112392
0.112363
0.112329
0.11229
0.112245
0.112194
0.112138
0.112075
0.112005
0.111929
0.111845
0.111753
0.111652
0.111544
0.111427
0.111301
0.111166
0.111023
0.110869
0.110706
0.110533
0.11035
0.110156
0.109951
0.109734
0.109505
0.109264
0.10901
0.108744
0.108465
0.108174
0.107871
0.107554
0.107224
0.106879
0.106519
0.106143
0.105749
0.105338
0.104907
0.104456
0.103984
0.10349
0.102972
0.10243
0.101873
0.101305
0.100731
0.100157
0.0995867
0.099021
0.0984546
0.0978781
0.0973358
0.0970908
0.112496
0.112491
0.112482
0.112468
0.112449
0.112425
0.112396
0.112362
0.112322
0.112277
0.112225
0.112168
0.112104
0.112033
0.111954
0.111867
0.111772
0.111668
0.111556
0.111435
0.111304
0.111165
0.111016
0.110857
0.110688
0.110508
0.110318
0.110116
0.109903
0.109678
0.10944
0.109188
0.108925
0.108648
0.108359
0.108057
0.107743
0.107415
0.107074
0.106717
0.106345
0.105957
0.105552
0.105128
0.104686
0.104223
0.10374
0.103234
0.102704
0.102152
0.101587
0.101016
0.100443
0.0998737
0.0993139
0.0987649
0.098221
0.0976679
0.0971372
0.0968605
0.112526
0.112521
0.112512
0.112498
0.112479
0.112455
0.112427
0.112392
0.112353
0.112307
0.112255
0.112197
0.112132
0.11206
0.111979
0.111889
0.111791
0.111685
0.111569
0.111444
0.11131
0.111167
0.111013
0.11085
0.110675
0.11049
0.110294
0.110086
0.109866
0.109634
0.109387
0.109128
0.108856
0.108571
0.108273
0.107963
0.10764
0.107304
0.106953
0.106588
0.106206
0.105809
0.105394
0.104961
0.104508
0.104035
0.103541
0.103022
0.10248
0.101914
0.101338
0.100762
0.100189
0.0996259
0.0990771
0.0985426
0.0980157
0.0974798
0.0969503
0.0966246
0.112553
0.112549
0.112539
0.112526
0.112507
0.112483
0.112455
0.112421
0.112381
0.112335
0.112283
0.112225
0.112158
0.112084
0.112001
0.11191
0.11181
0.111701
0.111582
0.111454
0.111317
0.11117
0.111013
0.110845
0.110667
0.110477
0.110275
0.110062
0.109836
0.109596
0.109343
0.109076
0.108797
0.108504
0.1082
0.107883
0.107552
0.107207
0.106849
0.106475
0.106086
0.10568
0.105258
0.104816
0.104356
0.103875
0.103371
0.102842
0.102288
0.101708
0.101122
0.10054
0.0999662
0.0994071
0.0988677
0.0983489
0.0978437
0.0973317
0.0968046
0.0964081
0.112577
0.112573
0.112564
0.11255
0.112531
0.112508
0.11248
0.112447
0.112407
0.112361
0.112308
0.112248
0.112181
0.112106
0.112022
0.11193
0.111828
0.111716
0.111594
0.111463
0.111323
0.111173
0.111013
0.110843
0.110661
0.110467
0.11026
0.110042
0.10981
0.109565
0.109305
0.109033
0.108747
0.108449
0.108138
0.107814
0.107476
0.107125
0.106759
0.106378
0.105982
0.10557
0.105141
0.104693
0.104225
0.103736
0.103223
0.102684
0.102117
0.101511
0.100911
0.100322
0.0997491
0.0991969
0.0986692
0.0981681
0.0976917
0.0972311
0.0967713
0.0963599
0.112599
0.112594
0.112585
0.112571
0.112552
0.112528
0.112499
0.112464
0.112423
0.112376
0.112323
0.112262
0.112194
0.112117
0.112032
0.111938
0.111834
0.11172
0.111597
0.111464
0.111322
0.11117
0.111007
0.110833
0.110648
0.11045
0.110239
0.110016
0.10978
0.10953
0.109268
0.108991
0.108702
0.108399
0.108082
0.107751
0.107407
0.107048
0.106675
0.106288
0.105885
0.105467
0.105032
0.104578
0.104103
0.103606
0.103085
0.102537
0.101958
0.101345
0.100743
0.100154
0.0995813
0.0990304
0.0985056
0.0980098
0.097542
0.0970937
0.0966505
0.0962477
0.11261
0.112606
0.112596
0.112582
0.112563
0.112539
0.11251
0.112475
0.112434
0.112387
0.112333
0.112272
0.112203
0.112125
0.112039
0.111943
0.111837
0.111722
0.111598
0.111464
0.11132
0.111165
0.110999
0.110822
0.110633
0.11043
0.110216
0.109988
0.109746
0.109492
0.109224
0.108941
0.108646
0.108336
0.108014
0.107677
0.107326
0.106961
0.106581
0.106187
0.105778
0.105354
0.104912
0.104452
0.103971
0.103468
0.102939
0.102381
0.101793
0.101177
0.100575
0.0999884
0.0994186
0.09887
0.0983469
0.0978533
0.0973902
0.0969518
0.0965247
0.0961318
0.112618
0.112614
0.112605
0.112591
0.112572
0.112548
0.112518
0.112483
0.112442
0.112395
0.112341
0.112279
0.11221
0.112132
0.112044
0.111947
0.11184
0.111724
0.111598
0.111462
0.111316
0.111159
0.11099
0.110809
0.110616
0.11041
0.11019
0.109957
0.109711
0.109451
0.109177
0.108889
0.108587
0.108272
0.107943
0.1076
0.107242
0.106871
0.106485
0.106084
0.105669
0.105238
0.104791
0.104324
0.103837
0.103327
0.10279
0.102221
0.101612
0.101008
0.100412
0.0998279
0.0992593
0.0987111
0.0981888
0.0976974
0.0972393
0.0968099
0.0963969
0.0960153
0.112624
0.11262
0.112611
0.112597
0.112578
0.112554
0.112525
0.11249
0.112449
0.112401
0.112347
0.112285
0.112214
0.112135
0.112047
0.111948
0.11184
0.111723
0.111596
0.111459
0.11131
0.11115
0.110979
0.110795
0.110598
0.110387
0.110163
0.109925
0.109674
0.109408
0.109128
0.108834
0.108526
0.108204
0.107869
0.10752
0.107156
0.106778
0.106386
0.105979
0.105557
0.105121
0.104667
0.104195
0.103702
0.103186
0.102643
0.102068
0.101454
0.100847
0.100251
0.0996676
0.0991005
0.0985536
0.098032
0.0975415
0.0970863
0.0966645
0.0962656
0.0958969
0.112629
0.112624
0.112615
0.112601
0.112582
0.112559
0.112529
0.112494
0.112453
0.112406
0.112351
0.112288
0.112217
0.112137
0.112047
0.111948
0.11184
0.111721
0.111593
0.111453
0.111302
0.11114
0.110965
0.110777
0.110576
0.110361
0.110133
0.10989
0.109633
0.109362
0.109076
0.108775
0.108461
0.108133
0.107791
0.107435
0.107065
0.106681
0.106282
0.105869
0.105441
0.104997
0.104537
0.104059
0.103559
0.103037
0.102487
0.101907
0.101288
0.100681
0.100086
0.0995042
0.0989384
0.0983922
0.0978715
0.0973827
0.0969309
0.0965165
0.0961305
0.0957767
0.112632
0.112627
0.112618
0.112604
0.112586
0.112562
0.112533
0.112498
0.112456
0.112408
0.112353
0.11229
0.112219
0.112138
0.112047
0.111947
0.111838
0.111718
0.111587
0.111445
0.111292
0.111126
0.110948
0.110757
0.110551
0.110332
0.110098
0.10985
0.109587
0.10931
0.109018
0.108712
0.108391
0.108056
0.107707
0.107344
0.106968
0.106577
0.106171
0.105751
0.105317
0.104867
0.1044
0.103914
0.103408
0.102878
0.102319
0.101729
0.101108
0.100503
0.0999112
0.0993328
0.0987701
0.0982267
0.0977079
0.0972204
0.0967709
0.0963632
0.0959907
0.095653
0.112633
0.112629
0.11262
0.112606
0.112587
0.112564
0.112534
0.112499
0.112458
0.11241
0.112354
0.112291
0.112218
0.112136
0.112045
0.111944
0.111834
0.111712
0.111579
0.111435
0.111278
0.111109
0.110928
0.110732
0.110522
0.110298
0.110058
0.109805
0.109536
0.109253
0.108954
0.108641
0.108314
0.107972
0.107616
0.107246
0.106862
0.106464
0.106051
0.105624
0.105182
0.104725
0.104251
0.103758
0.103245
0.102705
0.102134
0.10152
0.100913
0.100314
0.0997266
0.0991518
0.0985922
0.0980515
0.097535
0.09705
0.0966044
0.096204
0.0958452
0.0955255
0.112634
0.11263
0.112621
0.112607
0.112588
0.112564
0.112535
0.1125
0.112458
0.11241
0.112354
0.11229
0.112216
0.112133
0.112041
0.111939
0.111827
0.111703
0.111568
0.111421
0.111261
0.111089
0.110903
0.110703
0.110488
0.110258
0.110013
0.109753
0.109478
0.109188
0.108883
0.108563
0.108228
0.107878
0.107515
0.107137
0.106745
0.106339
0.105919
0.105485
0.105035
0.10457
0.104088
0.103588
0.103067
0.10252
0.101942
0.101322
0.100712
0.100113
0.0995275
0.0989558
0.0984004
0.0978644
0.0973525
0.0968711
0.096429
0.0960356
0.0956914
0.095392
0.112634
0.11263
0.112621
0.112607
0.112588
0.112564
0.112535
0.1125
0.112458
0.112409
0.112352
0.112287
0.112212
0.112129
0.112036
0.111932
0.111818
0.111693
0.111554
0.111404
0.111241
0.111064
0.110873
0.110668
0.110448
0.110212
0.109961
0.109694
0.109412
0.109115
0.108803
0.108474
0.108132
0.107774
0.107402
0.107016
0.106616
0.106201
0.105773
0.105329
0.104871
0.104397
0.103907
0.103398
0.102867
0.102312
0.101726
0.1011
0.100489
0.0998911
0.0993078
0.0987396
0.0981887
0.097658
0.0971516
0.0966756
0.0962395
0.0958549
0.0955268
0.0952509
0.112634
0.112629
0.11262
0.112607
0.112588
0.112564
0.112534
0.112498
0.112456
0.112407
0.112349
0.112282
0.112207
0.112123
0.112028
0.111923
0.111807
0.111679
0.111538
0.111383
0.111216
0.111034
0.110838
0.110628
0.110401
0.110159
0.109901
0.109627
0.109338
0.109033
0.108712
0.108375
0.108024
0.107657
0.107276
0.106881
0.106471
0.106047
0.105608
0.105155
0.104687
0.104204
0.103703
0.103183
0.102641
0.102072
0.101473
0.100844
0.100234
0.0996389
0.099059
0.0984953
0.0979501
0.0974261
0.0969273
0.0964594
0.0960315
0.0956569
0.0953465
0.0950973
0.112633
0.112628
0.112619
0.112606
0.112587
0.112563
0.112533
0.112497
0.112454
0.112404
0.112345
0.112278
0.112201
0.112115
0.112019
0.111912
0.111794
0.111662
0.111518
0.111359
0.111186
0.110999
0.110798
0.110581
0.110348
0.110098
0.109832
0.10955
0.109252
0.108938
0.108609
0.108263
0.107902
0.107526
0.107135
0.106729
0.106308
0.105873
0.105424
0.104959
0.10448
0.103985
0.103473
0.10294
0.102383
0.101796
0.101167
0.10055
0.0999448
0.0993533
0.0987763
0.098216
0.0976753
0.0971578
0.0966675
0.09621
0.095793
0.0954305
0.0951394
0.0949214
0.112632
0.112627
0.112618
0.112604
0.112585
0.112561
0.112531
0.112494
0.112451
0.1124
0.11234
0.112272
0.112194
0.112107
0.112009
0.111899
0.111777
0.111643
0.111494
0.11133
0.111152
0.110959
0.110751
0.110527
0.110286
0.110028
0.109754
0.109463
0.109156
0.108833
0.108494
0.108138
0.107766
0.107378
0.106976
0.106558
0.106125
0.105678
0.105215
0.104738
0.104246
0.103738
0.103211
0.102662
0.102088
0.101484
0.100847
0.100227
0.0996207
0.0990293
0.0984535
0.0978954
0.0973586
0.0968475
0.0963669
0.095922
0.0955193
0.0951711
0.094896
0.0947048
0.112631
0.112626
0.112617
0.112603
0.112584
0.112559
0.112529
0.112492
0.112448
0.112396
0.112335
0.112265
0.112186
0.112096
0.111996
0.111884
0.111759
0.11162
0.111467
0.111297
0.111113
0.110913
0.110697
0.110465
0.110215
0.109948
0.109665
0.109365
0.109048
0.108715
0.108364
0.107996
0.107612
0.107212
0.106796
0.106364
0.105917
0.105455
0.104977
0.104485
0.103978
0.103453
0.102907
0.102338
0.101739
0.101101
0.100467
0.0998452
0.0992369
0.0986431
0.0980652
0.0975061
0.0969702
0.096463
0.0959906
0.0955592
0.095175
0.0948453
0.0945766
0.0943955
0.11263
0.112625
0.112617
0.112603
0.112585
0.112561
0.112532
0.112496
0.112453
0.112403
0.112344
0.112277
0.1122
0.112113
0.112015
0.111906
0.111784
0.111649
0.1115
0.111334
0.111153
0.110956
0.110743
0.110514
0.110269
0.110007
0.109729
0.109435
0.109125
0.108798
0.108455
0.108094
0.107716
0.107322
0.106912
0.106486
0.106045
0.10559
0.105121
0.104637
0.104139
0.103625
0.103094
0.102541
0.101963
0.101355
0.100711
0.100082
0.0994653
0.0988612
0.0982696
0.0976922
0.0971327
0.0965968
0.0960917
0.0956243
0.0952024
0.0948345
0.0945309
0.0943149
0.112629
0.112625
0.112617
0.112604
0.112586
0.112564
0.112536
0.112501
0.11246
0.112412
0.112355
0.11229
0.112216
0.112132
0.112038
0.111932
0.111815
0.111684
0.111539
0.111379
0.111202
0.111007
0.110798
0.110574
0.110334
0.110078
0.109806
0.109518
0.109216
0.108899
0.108563
0.108208
0.107837
0.107449
0.107045
0.106626
0.10619
0.10574
0.105277
0.1048
0.104309
0.103803
0.103281
0.10274
0.102175
0.10158
0.100944
0.10031
0.0996871
0.0990748
0.0984724
0.0978801
0.0973006
0.0967391
0.0962026
0.0956992
0.0952382
0.0948304
0.0944866
0.0942322
0.112629
0.112625
0.112617
0.112605
0.112588
0.112566
0.112539
0.112507
0.112467
0.11242
0.112366
0.112303
0.112231
0.11215
0.112059
0.111957
0.111843
0.111717
0.111576
0.111421
0.111247
0.111054
0.110846
0.110625
0.110389
0.110137
0.10987
0.109588
0.109292
0.108978
0.108646
0.108296
0.10793
0.107547
0.107149
0.106736
0.106306
0.10586
0.105401
0.104928
0.104441
0.10394
0.103424
0.102889
0.102332
0.101749
0.101134
0.100478
0.0998422
0.0992184
0.098603
0.0979954
0.0973975
0.0968141
0.0962522
0.0957211
0.0952311
0.0947942
0.0944228
0.0941451
0.112629
0.112625
0.112618
0.112606
0.11259
0.112569
0.112544
0.112512
0.112474
0.112428
0.112375
0.112314
0.112244
0.112166
0.112077
0.111978
0.111868
0.111746
0.111607
0.111453
0.111281
0.111092
0.110886
0.110666
0.110433
0.110185
0.109921
0.109642
0.109349
0.109038
0.108709
0.108363
0.108001
0.107622
0.107227
0.106818
0.106393
0.105953
0.105496
0.105026
0.104541
0.104043
0.10353
0.102999
0.102448
0.101869
0.101257
0.100601
0.0999616
0.099331
0.0987059
0.0980858
0.0974724
0.0968705
0.0962873
0.0957325
0.0952172
0.0947544
0.0943584
0.0940592
0.11263
0.112626
0.112619
0.112608
0.112592
0.112573
0.112548
0.112517
0.11248
0.112435
0.112384
0.112324
0.112257
0.11218
0.112094
0.111997
0.111889
0.111765
0.111627
0.111474
0.111305
0.111119
0.110915
0.110698
0.110466
0.11022
0.109959
0.109682
0.109392
0.109083
0.108756
0.108413
0.108052
0.107675
0.107283
0.106876
0.106454
0.106017
0.105564
0.105094
0.10461
0.104113
0.103602
0.103074
0.102525
0.101949
0.101339
0.100684
0.100041
0.0994028
0.098768
0.098136
0.0975085
0.0968901
0.0962882
0.0957136
0.0951782
0.0946961
0.0942826
0.0939702
0.112631
0.112628
0.112621
0.11261
0.112595
0.112576
0.112552
0.112522
0.112485
0.112442
0.112391
0.112334
0.112268
0.112193
0.11211
0.112013
0.111902
0.111778
0.11164
0.111488
0.111321
0.111139
0.11094
0.110722
0.110492
0.110247
0.109988
0.109713
0.109424
0.109116
0.10879
0.108448
0.108089
0.107713
0.107322
0.106916
0.106495
0.106059
0.105608
0.105141
0.104656
0.10416
0.10365
0.103123
0.102577
0.102005
0.101399
0.100746
0.100098
0.0994535
0.0988102
0.0981682
0.0975289
0.0968966
0.0962789
0.0956869
0.0951337
0.0946342
0.0942055
0.0938813
0.112633
0.11263
0.112623
0.112613
0.112599
0.11258
0.112556
0.112526
0.11249
0.112448
0.112399
0.112342
0.112277
0.112204
0.112118
0.112019
0.111908
0.111784
0.111647
0.111497
0.111332
0.111152
0.110955
0.11074
0.110511
0.110267
0.110009
0.109734
0.109445
0.109138
0.108813
0.108471
0.108113
0.107737
0.107347
0.10694
0.106519
0.106084
0.105632
0.105166
0.104682
0.104185
0.103675
0.103149
0.102605
0.102037
0.101436
0.100787
0.100134
0.0994808
0.0988289
0.0981772
0.0975266
0.0968815
0.0962497
0.0956426
0.0950743
0.0945611
0.0941212
0.0937901
0.112636
0.112633
0.112627
0.112617
0.112603
0.112583
0.112559
0.11253
0.112494
0.112453
0.112406
0.112352
0.112286
0.112209
0.11212
0.11202
0.111909
0.111786
0.11165
0.111501
0.111338
0.11116
0.110966
0.110755
0.110524
0.11028
0.110022
0.109749
0.109459
0.109151
0.108826
0.108484
0.108126
0.107751
0.107359
0.106952
0.10653
0.106093
0.105641
0.105174
0.104691
0.104195
0.103684
0.103159
0.102616
0.102051
0.101457
0.100824
0.100154
0.0994924
0.0988334
0.0981738
0.0975138
0.0968575
0.0962132
0.0955926
0.0950106
0.0944848
0.0940352
0.0936986
0.112639
0.112636
0.11263
0.112619
0.112605
0.112586
0.112562
0.112533
0.112498
0.112458
0.112411
0.112353
0.112285
0.112206
0.112117
0.112017
0.111907
0.111784
0.11165
0.111502
0.11134
0.111164
0.110972
0.110762
0.110532
0.110288
0.11003
0.109756
0.109466
0.109157
0.108832
0.108489
0.10813
0.107753
0.107361
0.106953
0.10653
0.106091
0.105637
0.105167
0.104684
0.104188
0.103677
0.103151
0.102608
0.102044
0.101454
0.100828
0.100153
0.0994875
0.0988237
0.0981569
0.0974875
0.0968207
0.0961649
0.0955321
0.0949378
0.0944012
0.0939446
0.0936056
0.11264
0.112637
0.11263
0.11262
0.112606
0.112588
0.112564
0.112536
0.112504
0.112461
0.112409
0.112349
0.112279
0.1122
0.112111
0.112012
0.111902
0.11178
0.111647
0.1115
0.11134
0.111165
0.110974
0.110766
0.110539
0.110293
0.110033
0.109758
0.109466
0.109157
0.10883
0.108487
0.108126
0.107749
0.107355
0.106945
0.10652
0.10608
0.105624
0.105152
0.104668
0.104171
0.10366
0.103132
0.102589
0.102025
0.101436
0.100813
0.100139
0.0994732
0.0988057
0.0981322
0.0974544
0.096778
0.0961119
0.0954679
0.0948616
0.0943147
0.0938521
0.0935128
0.112639
0.112636
0.11263
0.112621
0.112607
0.112592
0.112568
0.112537
0.112499
0.112454
0.1124
0.112339
0.11227
0.112191
0.112103
0.112005
0.111896
0.111775
0.111642
0.111496
0.111337
0.111162
0.110972
0.110765
0.110538
0.110292
0.110031
0.109755
0.109462
0.109152
0.108824
0.108478
0.108116
0.107737
0.107341
0.10693
0.106503
0.106061
0.105603
0.105129
0.104643
0.104144
0.103631
0.103103
0.102558
0.101995
0.101408
0.100787
0.100117
0.0994521
0.0987812
0.0981003
0.0974136
0.0967282
0.0960527
0.0953984
0.0947802
0.0942234
0.0937563
0.0934198
0.112635
0.112634
0.112631
0.112621
0.112606
0.112585
0.112558
0.112525
0.112486
0.11244
0.112387
0.112327
0.112258
0.11218
0.112093
0.111996
0.111888
0.111768
0.111636
0.111491
0.111332
0.111158
0.110968
0.110761
0.110535
0.110288
0.110026
0.109748
0.109454
0.109142
0.108812
0.108465
0.108101
0.10772
0.107323
0.106909
0.10648
0.106036
0.105575
0.105099
0.10461
0.104109
0.103594
0.103065
0.102519
0.101956
0.101371
0.100755
0.100091
0.0994284
0.0987538
0.0980641
0.0973688
0.0966757
0.0959919
0.0953284
0.0946972
0.0941295
0.0936583
0.0933285
0.112629
0.112625
0.112617
0.112605
0.112588
0.112566
0.112539
0.112506
0.112468
0.112423
0.112371
0.112312
0.112245
0.112169
0.112083
0.111987
0.11188
0.111761
0.111629
0.111485
0.111326
0.111152
0.110962
0.110755
0.11053
0.110285
0.110019
0.109739
0.109443
0.109129
0.108797
0.108448
0.108081
0.107698
0.107299
0.106883
0.106452
0.106005
0.105542
0.105062
0.104571
0.104067
0.10355
0.103018
0.102471
0.101908
0.101325
0.100715
0.100063
0.0994047
0.0987256
0.0980237
0.0973203
0.0966212
0.0959303
0.0952595