/*--------------------------------*- C++ -*----------------------------------*\
| =========                 |                                                 |
| \\      /  F ield         | OpenFOAM: The Open Source CFD Toolbox           |
|  \\    /   O peration     | Version:  v1906                                 |
|   \\  /    A nd           | Web:      www.OpenFOAM.com                      |
|    \\/     M anipulation  |                                                 |
\*---------------------------------------------------------------------------*/
FoamFile
{
    version     2.0;
    format      ascii;
    class       volScalarField;
    location    "2.83";
    object      H2O2;
}
// * * * * * * * * * * * * * * * * * * * * * * * * * * * * * * * * * * * * * //

dimensions      [0 0 0 0 0 0 0];


internalField   nonuniform List<scalar> 
26400
(
1.1873e-07
1.18922e-07
1.19305e-07
1.19879e-07
1.20643e-07
1.21597e-07
1.22741e-07
1.24073e-07
1.25592e-07
1.27298e-07
1.29189e-07
1.31264e-07
1.33521e-07
1.35959e-07
1.38576e-07
1.4137e-07
1.44338e-07
1.47478e-07
1.50786e-07
1.54258e-07
1.57889e-07
1.61674e-07
1.65606e-07
1.69676e-07
1.73875e-07
1.78188e-07
1.826e-07
1.87093e-07
1.91642e-07
1.96217e-07
2.00779e-07
2.05305e-07
2.09784e-07
2.142e-07
2.18531e-07
2.22742e-07
2.2682e-07
2.30749e-07
2.34504e-07
2.37503e-07
2.39787e-07
2.41388e-07
2.42337e-07
2.42655e-07
2.42359e-07
2.41457e-07
2.39942e-07
2.37791e-07
2.34948e-07
2.31294e-07
2.26568e-07
2.20166e-07
2.13381e-07
2.05319e-07
1.9137e-07
1.46916e-07
1.31188e-07
1.33685e-07
1.52299e-07
2.09361e-07
1.16652e-07
1.16848e-07
1.1724e-07
1.17827e-07
1.18609e-07
1.19585e-07
1.20755e-07
1.22116e-07
1.23668e-07
1.2541e-07
1.27341e-07
1.29458e-07
1.3176e-07
1.34245e-07
1.36912e-07
1.39759e-07
1.42782e-07
1.45979e-07
1.49347e-07
1.52881e-07
1.56578e-07
1.60431e-07
1.64434e-07
1.68577e-07
1.72852e-07
1.77245e-07
1.8174e-07
1.86319e-07
1.90956e-07
1.95622e-07
2.00279e-07
2.04902e-07
2.0948e-07
2.13996e-07
2.18427e-07
2.22739e-07
2.26917e-07
2.30946e-07
2.34796e-07
2.37913e-07
2.40336e-07
2.421e-07
2.43235e-07
2.43766e-07
2.4371e-07
2.43071e-07
2.41841e-07
2.39982e-07
2.37409e-07
2.33925e-07
2.29074e-07
2.23512e-07
2.1715e-07
2.09195e-07
1.95086e-07
1.50045e-07
1.33341e-07
1.34786e-07
1.52581e-07
2.09308e-07
1.14015e-07
1.14218e-07
1.14622e-07
1.15228e-07
1.16034e-07
1.1704e-07
1.18245e-07
1.19646e-07
1.21242e-07
1.23032e-07
1.25013e-07
1.27185e-07
1.29545e-07
1.32091e-07
1.34822e-07
1.37734e-07
1.40826e-07
1.44094e-07
1.47536e-07
1.51147e-07
1.54923e-07
1.58858e-07
1.62946e-07
1.67178e-07
1.71544e-07
1.76032e-07
1.80625e-07
1.85306e-07
1.90048e-07
1.94822e-07
1.9959e-07
2.04325e-07
2.09018e-07
2.13649e-07
2.18195e-07
2.22622e-07
2.26915e-07
2.31056e-07
2.35016e-07
2.3826e-07
2.4083e-07
2.42762e-07
2.44089e-07
2.44836e-07
2.45022e-07
2.4465e-07
2.43711e-07
2.42164e-07
2.39915e-07
2.36762e-07
2.32235e-07
2.2696e-07
2.20772e-07
2.12828e-07
1.98613e-07
1.5336e-07
1.35803e-07
1.36091e-07
1.53023e-07
2.09438e-07
1.11122e-07
1.11332e-07
1.11752e-07
1.1238e-07
1.13216e-07
1.14258e-07
1.15504e-07
1.16951e-07
1.18598e-07
1.20442e-07
1.22482e-07
1.24714e-07
1.27138e-07
1.2975e-07
1.32549e-07
1.35532e-07
1.38696e-07
1.42039e-07
1.45557e-07
1.49248e-07
1.53105e-07
1.57124e-07
1.61299e-07
1.65621e-07
1.7008e-07
1.74664e-07
1.79357e-07
1.84139e-07
1.88988e-07
1.93871e-07
1.98751e-07
2.036e-07
2.08407e-07
2.13154e-07
2.17815e-07
2.22354e-07
2.26758e-07
2.31006e-07
2.35069e-07
2.38433e-07
2.41141e-07
2.43234e-07
2.44745e-07
2.45701e-07
2.4612e-07
2.46007e-07
2.45347e-07
2.44091e-07
2.42135e-07
2.39268e-07
2.35068e-07
2.30014e-07
2.23807e-07
2.15498e-07
2.00787e-07
1.56375e-07
1.38334e-07
1.37474e-07
1.53673e-07
2.09666e-07
1.08016e-07
1.08236e-07
1.08676e-07
1.09333e-07
1.10205e-07
1.11291e-07
1.12586e-07
1.14087e-07
1.15792e-07
1.17698e-07
1.19801e-07
1.221e-07
1.24591e-07
1.27273e-07
1.30142e-07
1.33197e-07
1.36435e-07
1.39853e-07
1.43448e-07
1.47216e-07
1.51154e-07
1.55255e-07
1.59515e-07
1.63924e-07
1.68473e-07
1.7315e-07
1.7794e-07
1.82823e-07
1.87776e-07
1.92767e-07
1.97756e-07
2.02718e-07
2.07639e-07
2.12501e-07
2.17277e-07
2.21929e-07
2.26442e-07
2.30795e-07
2.34953e-07
2.38429e-07
2.41268e-07
2.43511e-07
2.45196e-07
2.46351e-07
2.46995e-07
2.4713e-07
2.46734e-07
2.45742e-07
2.44006e-07
2.41219e-07
2.37475e-07
2.32552e-07
2.25922e-07
2.1612e-07
1.98516e-07
1.58e-07
1.40592e-07
1.38884e-07
1.54737e-07
2.101e-07
1.04682e-07
1.04916e-07
1.05383e-07
1.0608e-07
1.07001e-07
1.08143e-07
1.09499e-07
1.11066e-07
1.12838e-07
1.14814e-07
1.16988e-07
1.19358e-07
1.21921e-07
1.24675e-07
1.27616e-07
1.30744e-07
1.34055e-07
1.37546e-07
1.41216e-07
1.4506e-07
1.49075e-07
1.53256e-07
1.57597e-07
1.6209e-07
1.66725e-07
1.71492e-07
1.76375e-07
1.81354e-07
1.86407e-07
1.91503e-07
1.96601e-07
2.01674e-07
2.0671e-07
2.1169e-07
2.16583e-07
2.2135e-07
2.25974e-07
2.30427e-07
2.34671e-07
2.38243e-07
2.41194e-07
2.43571e-07
2.45416e-07
2.4676e-07
2.47622e-07
2.48005e-07
2.47882e-07
2.47184e-07
2.45756e-07
2.43291e-07
2.39818e-07
2.34919e-07
2.27503e-07
2.14156e-07
1.81944e-07
1.57424e-07
1.42399e-07
1.40119e-07
1.55927e-07
2.10758e-07
1.01071e-07
1.01328e-07
1.0184e-07
1.026e-07
1.03594e-07
1.04813e-07
1.06249e-07
1.07895e-07
1.09748e-07
1.11802e-07
1.14053e-07
1.165e-07
1.19138e-07
1.21965e-07
1.24979e-07
1.28179e-07
1.31561e-07
1.35125e-07
1.38866e-07
1.42783e-07
1.46871e-07
1.51127e-07
1.55544e-07
1.60115e-07
1.64832e-07
1.69683e-07
1.74653e-07
1.79724e-07
1.84872e-07
1.90068e-07
1.95273e-07
2.00458e-07
2.05613e-07
2.10716e-07
2.15739e-07
2.20636e-07
2.25387e-07
2.29951e-07
2.34256e-07
2.37891e-07
2.40924e-07
2.43412e-07
2.45399e-07
2.46917e-07
2.47987e-07
2.48606e-07
2.48741e-07
2.4831e-07
2.47128e-07
2.45101e-07
2.42054e-07
2.3757e-07
2.30533e-07
2.17486e-07
1.85532e-07
1.60581e-07
1.44417e-07
1.41228e-07
1.5726e-07
2.11655e-07
9.7079e-08
9.73761e-08
9.79736e-08
9.88777e-08
9.99923e-08
1.01321e-07
1.02858e-07
1.046e-07
1.06542e-07
1.08681e-07
1.11014e-07
1.13538e-07
1.16251e-07
1.19152e-07
1.22238e-07
1.25508e-07
1.28959e-07
1.3259e-07
1.364e-07
1.40384e-07
1.44541e-07
1.48866e-07
1.53354e-07
1.57998e-07
1.6279e-07
1.67719e-07
1.7277e-07
1.77925e-07
1.83163e-07
1.88454e-07
1.9376e-07
1.99056e-07
2.0433e-07
2.09565e-07
2.14734e-07
2.19799e-07
2.24755e-07
2.29583e-07
2.33772e-07
2.37374e-07
2.40438e-07
2.43008e-07
2.45121e-07
2.46806e-07
2.48075e-07
2.48924e-07
2.49315e-07
2.49158e-07
2.48264e-07
2.46559e-07
2.43856e-07
2.39723e-07
2.33035e-07
2.20371e-07
1.89072e-07
1.63865e-07
1.46532e-07
1.4233e-07
1.58726e-07
2.12831e-07
9.34905e-08
9.37728e-08
9.43387e-08
9.51897e-08
9.63283e-08
9.77603e-08
9.93895e-08
1.0122e-07
1.03248e-07
1.0547e-07
1.07883e-07
1.10484e-07
1.13271e-07
1.16243e-07
1.19397e-07
1.22733e-07
1.26249e-07
1.29944e-07
1.33816e-07
1.37864e-07
1.42083e-07
1.46472e-07
1.51024e-07
1.55734e-07
1.60594e-07
1.65592e-07
1.70717e-07
1.75949e-07
1.81268e-07
1.86645e-07
1.92044e-07
1.97438e-07
2.02818e-07
2.08166e-07
2.13453e-07
2.18636e-07
2.23693e-07
2.28569e-07
2.32801e-07
2.36462e-07
2.3961e-07
2.42294e-07
2.44552e-07
2.4641e-07
2.47879e-07
2.48949e-07
2.49579e-07
2.4967e-07
2.49023e-07
2.47572e-07
2.45104e-07
2.41157e-07
2.346e-07
2.22167e-07
1.91946e-07
1.66962e-07
1.48612e-07
1.43338e-07
1.6032e-07
2.14388e-07
9.00739e-08
9.03461e-08
9.08914e-08
9.17101e-08
9.28031e-08
9.41718e-08
9.58178e-08
9.77459e-08
9.98609e-08
1.02167e-07
1.04661e-07
1.07338e-07
1.10198e-07
1.13238e-07
1.16458e-07
1.19856e-07
1.23432e-07
1.27185e-07
1.31115e-07
1.35218e-07
1.39494e-07
1.43939e-07
1.48549e-07
1.53317e-07
1.58237e-07
1.63297e-07
1.68486e-07
1.73786e-07
1.79176e-07
1.84629e-07
1.9011e-07
1.95596e-07
2.01079e-07
2.0655e-07
2.11989e-07
2.17371e-07
2.22704e-07
2.27438e-07
2.3162e-07
2.35297e-07
2.38514e-07
2.41308e-07
2.4371e-07
2.45741e-07
2.47405e-07
2.48688e-07
2.49535e-07
2.49832e-07
2.4941e-07
2.48146e-07
2.45768e-07
2.41703e-07
2.34659e-07
2.21477e-07
1.93573e-07
1.69641e-07
1.5061e-07
1.4426e-07
1.62025e-07
2.16118e-07
8.67484e-08
8.70154e-08
8.75498e-08
8.83515e-08
8.94206e-08
9.07571e-08
9.23608e-08
9.42316e-08
9.6369e-08
9.87746e-08
1.01355e-07
1.0411e-07
1.07039e-07
1.10144e-07
1.13423e-07
1.16878e-07
1.20507e-07
1.24312e-07
1.28292e-07
1.32445e-07
1.3677e-07
1.41264e-07
1.45923e-07
1.50741e-07
1.55713e-07
1.60826e-07
1.6607e-07
1.71426e-07
1.76875e-07
1.82388e-07
1.87931e-07
1.93478e-07
1.99025e-07
2.04557e-07
2.10057e-07
2.15505e-07
2.20899e-07
2.25702e-07
2.2997e-07
2.33752e-07
2.37094e-07
2.40032e-07
2.42598e-07
2.44812e-07
2.46675e-07
2.48167e-07
2.49228e-07
2.4973e-07
2.49513e-07
2.48407e-07
2.46043e-07
2.41581e-07
2.32936e-07
2.14172e-07
1.93571e-07
1.71853e-07
1.52452e-07
1.45045e-07
1.6382e-07
2.18006e-07
8.34636e-08
8.37279e-08
8.42569e-08
8.50505e-08
8.61086e-08
8.74312e-08
8.90181e-08
9.08694e-08
9.29849e-08
9.53647e-08
9.80086e-08
1.00823e-07
1.03809e-07
1.06966e-07
1.10295e-07
1.13797e-07
1.17472e-07
1.2132e-07
1.25342e-07
1.29536e-07
1.33902e-07
1.38437e-07
1.43138e-07
1.47999e-07
1.53015e-07
1.58174e-07
1.63465e-07
1.68871e-07
1.74371e-07
1.79937e-07
1.85535e-07
1.91139e-07
1.96742e-07
2.02332e-07
2.07888e-07
2.13393e-07
2.18843e-07
2.2372e-07
2.2808e-07
2.31973e-07
2.35444e-07
2.38531e-07
2.41263e-07
2.43657e-07
2.45716e-07
2.47414e-07
2.48686e-07
2.49393e-07
2.49396e-07
2.48512e-07
2.46359e-07
2.42102e-07
2.33732e-07
2.15578e-07
1.95744e-07
1.74343e-07
1.54344e-07
1.45897e-07
1.65648e-07
2.19618e-07
8.01914e-08
8.04531e-08
8.09773e-08
8.17634e-08
8.28114e-08
8.41208e-08
8.56916e-08
8.75232e-08
8.96153e-08
9.19673e-08
9.45787e-08
9.74485e-08
1.00485e-07
1.03689e-07
1.07061e-07
1.10603e-07
1.14315e-07
1.18199e-07
1.22254e-07
1.2648e-07
1.30878e-07
1.35446e-07
1.4018e-07
1.45076e-07
1.50127e-07
1.55325e-07
1.60656e-07
1.66105e-07
1.71651e-07
1.77266e-07
1.82916e-07
1.88573e-07
1.94231e-07
1.99877e-07
2.0549e-07
2.11058e-07
2.16567e-07
2.21522e-07
2.25977e-07
2.29983e-07
2.33586e-07
2.36822e-07
2.3972e-07
2.42296e-07
2.44547e-07
2.46444e-07
2.47913e-07
2.48806e-07
2.48985e-07
2.48241e-07
2.46145e-07
2.41822e-07
2.33381e-07
2.1638e-07
1.97707e-07
1.76883e-07
1.56476e-07
1.47041e-07
1.67624e-07
2.20701e-07
7.69269e-08
7.7186e-08
7.77048e-08
7.84828e-08
7.95197e-08
8.0815e-08
8.23683e-08
8.41789e-08
8.6246e-08
8.85689e-08
9.11463e-08
9.3977e-08
9.70592e-08
1.00304e-07
1.03712e-07
1.07286e-07
1.11026e-07
1.14935e-07
1.19014e-07
1.23263e-07
1.27683e-07
1.32273e-07
1.3703e-07
1.41951e-07
1.4703e-07
1.52257e-07
1.57621e-07
1.63106e-07
1.68692e-07
1.7435e-07
1.80048e-07
1.85755e-07
1.91462e-07
1.97157e-07
2.02815e-07
2.08466e-07
2.1405e-07
2.19093e-07
2.23652e-07
2.27779e-07
2.31519e-07
2.34909e-07
2.37978e-07
2.4074e-07
2.43188e-07
2.45289e-07
2.4696e-07
2.48039e-07
2.48387e-07
2.47737e-07
2.4553e-07
2.40561e-07
2.29973e-07
2.16371e-07
1.99531e-07
1.79577e-07
1.5902e-07
1.49002e-07
1.69716e-07
2.2096e-07
7.36757e-08
7.39317e-08
7.44443e-08
7.52129e-08
7.62371e-08
7.75162e-08
7.90496e-08
8.08364e-08
8.28756e-08
8.5166e-08
8.77063e-08
9.04946e-08
9.35289e-08
9.68067e-08
1.00242e-07
1.03838e-07
1.07595e-07
1.11518e-07
1.15607e-07
1.19865e-07
1.24293e-07
1.28892e-07
1.33659e-07
1.38593e-07
1.43688e-07
1.48936e-07
1.54325e-07
1.5984e-07
1.65461e-07
1.71159e-07
1.76905e-07
1.82663e-07
1.88426e-07
1.94182e-07
1.99911e-07
2.05636e-07
2.11295e-07
2.16429e-07
2.21096e-07
2.2535e-07
2.29235e-07
2.32788e-07
2.36038e-07
2.38996e-07
2.41654e-07
2.43975e-07
2.45874e-07
2.47183e-07
2.47781e-07
2.47394e-07
2.45469e-07
2.40819e-07
2.30687e-07
2.1785e-07
2.01911e-07
1.82718e-07
1.62214e-07
1.51742e-07
1.71959e-07
2.2035e-07
7.04429e-08
7.06954e-08
7.12009e-08
7.1959e-08
7.29688e-08
7.42296e-08
7.57406e-08
7.75006e-08
7.95083e-08
8.17622e-08
8.42605e-08
8.70011e-08
8.99815e-08
9.31989e-08
9.66498e-08
1.00254e-07
1.04013e-07
1.07932e-07
1.12014e-07
1.16263e-07
1.2068e-07
1.25269e-07
1.30029e-07
1.34961e-07
1.40058e-07
1.45315e-07
1.5072e-07
1.56257e-07
1.61905e-07
1.67638e-07
1.73426e-07
1.79228e-07
1.85034e-07
1.9083e-07
1.96661e-07
2.02481e-07
2.08233e-07
2.13473e-07
2.18263e-07
2.22656e-07
2.267e-07
2.30432e-07
2.33878e-07
2.37049e-07
2.39935e-07
2.42494e-07
2.44638e-07
2.46196e-07
2.47057e-07
2.46949e-07
2.45332e-07
2.41072e-07
2.31586e-07
2.19673e-07
2.04843e-07
1.86688e-07
1.66499e-07
1.55131e-07
1.74041e-07
2.19031e-07
6.7236e-08
6.74843e-08
6.79814e-08
6.87268e-08
6.97195e-08
7.09587e-08
7.24434e-08
7.41721e-08
7.61435e-08
7.83557e-08
8.08066e-08
8.34936e-08
8.64139e-08
8.95642e-08
9.29404e-08
9.65381e-08
1.00282e-07
1.04177e-07
1.08227e-07
1.12438e-07
1.16815e-07
1.21364e-07
1.26091e-07
1.30997e-07
1.36079e-07
1.41331e-07
1.4674e-07
1.52292e-07
1.57967e-07
1.63735e-07
1.69569e-07
1.75422e-07
1.81287e-07
1.87154e-07
1.93065e-07
1.98974e-07
2.04822e-07
2.10176e-07
2.15099e-07
2.19647e-07
2.23868e-07
2.278e-07
2.31469e-07
2.34883e-07
2.38029e-07
2.40862e-07
2.43289e-07
2.45139e-07
2.4629e-07
2.46491e-07
2.45229e-07
2.41456e-07
2.32848e-07
2.22096e-07
2.0867e-07
1.91946e-07
1.72376e-07
1.59097e-07
1.758e-07
2.17432e-07
6.40666e-08
6.43098e-08
6.47969e-08
6.55269e-08
6.64992e-08
6.77126e-08
6.91661e-08
7.0858e-08
7.27868e-08
7.49503e-08
7.73462e-08
7.99715e-08
8.28229e-08
8.58965e-08
8.91878e-08
9.26916e-08
9.64019e-08
1.0025e-07
1.0424e-07
1.08379e-07
1.12673e-07
1.17121e-07
1.2178e-07
1.26639e-07
1.31691e-07
1.36923e-07
1.42325e-07
1.47881e-07
1.53572e-07
1.59375e-07
1.6524e-07
1.71119e-07
1.77003e-07
1.82959e-07
1.88961e-07
1.94971e-07
2.00933e-07
2.06419e-07
2.11496e-07
2.16223e-07
2.20651e-07
2.24818e-07
2.28749e-07
2.32452e-07
2.35913e-07
2.39084e-07
2.41877e-07
2.44134e-07
2.45588e-07
2.46146e-07
2.45313e-07
2.42131e-07
2.3456e-07
2.25106e-07
2.13294e-07
1.98409e-07
1.80072e-07
1.64857e-07
1.78059e-07
2.16151e-07
6.09483e-08
6.11853e-08
6.16601e-08
6.23718e-08
6.33195e-08
6.45023e-08
6.59188e-08
6.75675e-08
6.94467e-08
7.15542e-08
7.38871e-08
7.64425e-08
7.92163e-08
8.22042e-08
8.54008e-08
8.88001e-08
9.23951e-08
9.6178e-08
1.00086e-07
1.04124e-07
1.0836e-07
1.12792e-07
1.17415e-07
1.22228e-07
1.27224e-07
1.32397e-07
1.37738e-07
1.43234e-07
1.48869e-07
1.54622e-07
1.60476e-07
1.66351e-07
1.72246e-07
1.78229e-07
1.84277e-07
1.90358e-07
1.96425e-07
2.02046e-07
2.07293e-07
2.12228e-07
2.16901e-07
2.21351e-07
2.25604e-07
2.29665e-07
2.33514e-07
2.37102e-07
2.40331e-07
2.43039e-07
2.44967e-07
2.46023e-07
2.45706e-07
2.43137e-07
2.36586e-07
2.28293e-07
2.1791e-07
2.04926e-07
1.88918e-07
1.73825e-07
1.81909e-07
2.16271e-07
5.78978e-08
5.81275e-08
5.85876e-08
5.92773e-08
6.01959e-08
6.13423e-08
6.27155e-08
6.4314e-08
6.61363e-08
6.818e-08
7.04424e-08
7.29204e-08
7.56097e-08
7.85054e-08
8.16016e-08
8.48911e-08
8.83654e-08
9.20144e-08
9.58261e-08
9.98135e-08
1.03979e-07
1.08326e-07
1.12853e-07
1.17561e-07
1.22447e-07
1.27506e-07
1.32733e-07
1.38116e-07
1.43643e-07
1.49294e-07
1.55059e-07
1.60843e-07
1.66726e-07
1.72702e-07
1.7876e-07
1.84881e-07
1.91037e-07
1.96806e-07
2.02246e-07
2.07417e-07
2.1237e-07
2.17149e-07
2.21784e-07
2.26286e-07
2.30638e-07
2.34783e-07
2.38617e-07
2.41958e-07
2.44517e-07
2.46446e-07
2.46954e-07
2.45244e-07
2.39991e-07
2.32704e-07
2.23407e-07
2.12099e-07
1.99251e-07
1.88007e-07
1.91369e-07
2.18537e-07
5.49122e-08
5.51329e-08
5.5575e-08
5.62379e-08
5.7121e-08
5.82235e-08
5.95446e-08
6.10835e-08
6.28386e-08
6.48082e-08
6.699e-08
6.93809e-08
7.19772e-08
7.47742e-08
7.7766e-08
8.09459e-08
8.43057e-08
8.78356e-08
9.15267e-08
9.53832e-08
9.94086e-08
1.03606e-07
1.07976e-07
1.12521e-07
1.1724e-07
1.22129e-07
1.27183e-07
1.32397e-07
1.37758e-07
1.43253e-07
1.4888e-07
1.54532e-07
1.60285e-07
1.66133e-07
1.72064e-07
1.78059e-07
1.84089e-07
1.90112e-07
1.95789e-07
2.012e-07
2.06422e-07
2.11522e-07
2.16553e-07
2.21551e-07
2.26525e-07
2.31451e-07
2.36256e-07
2.40799e-07
2.44844e-07
2.48023e-07
2.50488e-07
2.50983e-07
2.48648e-07
2.42603e-07
2.34659e-07
2.25178e-07
2.14718e-07
2.05704e-07
2.02002e-07
2.22055e-07
5.21205e-08
5.23458e-08
5.27974e-08
5.34747e-08
5.43776e-08
5.55058e-08
5.6859e-08
5.84368e-08
6.02382e-08
6.22617e-08
6.45054e-08
6.69661e-08
6.96401e-08
7.2522e-08
7.56054e-08
7.88825e-08
8.23436e-08
8.59635e-08
8.97482e-08
9.37032e-08
9.7833e-08
1.02141e-07
1.0663e-07
1.113e-07
1.1615e-07
1.21178e-07
1.26375e-07
1.31734e-07
1.37238e-07
1.42867e-07
1.48612e-07
1.54472e-07
1.60434e-07
1.66494e-07
1.72639e-07
1.78847e-07
1.85088e-07
1.90944e-07
1.96524e-07
2.01931e-07
2.07263e-07
2.12603e-07
2.18023e-07
2.23566e-07
2.29243e-07
2.35008e-07
2.40737e-07
2.46197e-07
2.51011e-07
2.55909e-07
2.58825e-07
2.58138e-07
2.51764e-07
2.42847e-07
2.3153e-07
2.18532e-07
2.05397e-07
1.96019e-07
2.06252e-07
2.4397e-07
4.95498e-08
4.97802e-08
5.02423e-08
5.09361e-08
5.18618e-08
5.30199e-08
5.44108e-08
5.6035e-08
5.78921e-08
5.99815e-08
6.23013e-08
6.48487e-08
6.76194e-08
7.06074e-08
7.38049e-08
7.72021e-08
8.07555e-08
8.44732e-08
8.83621e-08
9.24282e-08
9.6676e-08
1.01109e-07
1.05728e-07
1.10535e-07
1.15528e-07
1.20702e-07
1.2605e-07
1.3156e-07
1.37216e-07
1.42993e-07
1.48876e-07
1.54889e-07
1.61012e-07
1.67234e-07
1.7353e-07
1.79861e-07
1.85766e-07
1.91379e-07
1.96826e-07
2.02233e-07
2.07714e-07
2.13373e-07
2.19287e-07
2.25501e-07
2.32002e-07
2.38693e-07
2.45363e-07
2.51651e-07
2.58123e-07
2.65129e-07
2.68641e-07
2.65485e-07
2.58757e-07
2.48641e-07
2.35829e-07
2.21768e-07
2.09146e-07
2.03733e-07
2.17284e-07
2.54189e-07
4.71739e-08
4.74069e-08
4.78746e-08
4.85773e-08
4.95163e-08
5.06929e-08
5.2109e-08
5.37662e-08
5.56657e-08
5.78081e-08
6.01925e-08
6.28165e-08
6.56757e-08
6.8763e-08
7.20691e-08
7.55285e-08
7.91518e-08
8.29474e-08
8.69217e-08
9.10794e-08
9.54236e-08
9.9956e-08
1.04677e-07
1.09587e-07
1.14682e-07
1.19959e-07
1.25409e-07
1.31021e-07
1.36776e-07
1.42646e-07
1.48615e-07
1.54734e-07
1.60981e-07
1.67338e-07
1.73761e-07
1.79682e-07
1.85254e-07
1.90631e-07
1.95963e-07
2.01399e-07
2.07079e-07
2.13135e-07
2.19674e-07
2.2676e-07
2.34378e-07
2.42376e-07
2.50372e-07
2.58878e-07
2.6832e-07
2.79136e-07
2.8488e-07
2.81108e-07
2.7312e-07
2.61001e-07
2.45648e-07
2.29098e-07
2.15206e-07
2.11751e-07
2.28785e-07
2.66817e-07
4.50005e-08
4.52326e-08
4.56989e-08
4.64003e-08
4.73388e-08
4.85174e-08
4.99395e-08
5.16091e-08
5.35301e-08
5.57054e-08
5.81365e-08
6.08225e-08
6.37593e-08
6.69388e-08
7.02725e-08
7.37739e-08
7.74531e-08
8.13164e-08
8.53672e-08
8.96062e-08
9.40328e-08
9.8645e-08
1.0344e-07
1.08417e-07
1.13571e-07
1.18898e-07
1.24393e-07
1.30044e-07
1.35833e-07
1.41732e-07
1.47726e-07
1.53899e-07
1.6024e-07
1.66758e-07
1.72714e-07
1.78256e-07
1.83542e-07
1.88737e-07
1.94005e-07
1.99519e-07
2.05449e-07
2.11964e-07
2.19215e-07
2.27324e-07
2.36333e-07
2.46141e-07
2.56366e-07
2.68177e-07
2.81965e-07
2.97885e-07
3.07269e-07
3.04359e-07
2.95622e-07
2.81023e-07
2.61847e-07
2.40951e-07
2.23432e-07
2.19149e-07
2.3913e-07
2.81523e-07
4.30432e-08
4.32711e-08
4.37291e-08
4.44183e-08
4.53411e-08
4.65016e-08
4.79052e-08
4.95595e-08
5.14731e-08
5.36539e-08
5.61082e-08
5.88394e-08
6.18447e-08
6.5011e-08
6.83575e-08
7.18972e-08
7.56371e-08
7.95783e-08
8.37173e-08
8.80462e-08
9.25565e-08
9.72393e-08
1.02087e-07
1.07095e-07
1.12259e-07
1.17577e-07
1.23048e-07
1.28665e-07
1.34415e-07
1.40267e-07
1.46199e-07
1.52309e-07
1.58551e-07
1.64859e-07
1.70557e-07
1.75851e-07
1.80934e-07
1.85991e-07
1.91211e-07
1.96785e-07
2.02916e-07
2.09818e-07
2.17708e-07
2.26799e-07
2.3726e-07
2.49164e-07
2.62393e-07
2.78889e-07
2.99165e-07
3.23129e-07
3.38429e-07
3.37433e-07
3.27994e-07
3.09938e-07
2.85033e-07
2.56926e-07
2.31976e-07
2.22903e-07
2.45918e-07
2.99212e-07
4.13126e-08
4.15349e-08
4.1981e-08
4.2651e-08
4.35458e-08
4.46678e-08
4.60223e-08
4.76204e-08
4.94854e-08
5.16305e-08
5.40707e-08
5.6826e-08
5.97614e-08
6.29033e-08
6.62682e-08
6.98652e-08
7.3696e-08
7.7755e-08
8.20266e-08
8.64821e-08
9.10997e-08
9.58613e-08
1.00751e-07
1.05757e-07
1.10874e-07
1.16109e-07
1.21473e-07
1.26978e-07
1.32625e-07
1.38401e-07
1.44299e-07
1.50447e-07
1.56852e-07
1.62608e-07
1.67902e-07
1.72911e-07
1.77803e-07
1.82748e-07
1.87928e-07
1.93543e-07
1.99813e-07
2.06989e-07
2.15351e-07
2.25209e-07
2.36856e-07
2.50468e-07
2.67904e-07
2.90705e-07
3.20289e-07
3.56882e-07
3.81361e-07
3.84858e-07
3.75057e-07
3.52291e-07
3.193e-07
2.80266e-07
2.41239e-07
2.15495e-07
2.29167e-07
2.97701e-07
3.98014e-08
4.0021e-08
4.04596e-08
4.11156e-08
4.19857e-08
4.30635e-08
4.4337e-08
4.58045e-08
4.75755e-08
4.9624e-08
5.19469e-08
5.45428e-08
5.74096e-08
6.05488e-08
6.39629e-08
6.76541e-08
7.16237e-08
7.58708e-08
8.03928e-08
8.50403e-08
8.98053e-08
9.46707e-08
9.96108e-08
1.04591e-07
1.09569e-07
1.14602e-07
1.19723e-07
1.24968e-07
1.30387e-07
1.35955e-07
1.41795e-07
1.47725e-07
1.53835e-07
1.59337e-07
1.64474e-07
1.69408e-07
1.74265e-07
1.79194e-07
1.84372e-07
1.90001e-07
1.96315e-07
2.03591e-07
2.12173e-07
2.22521e-07
2.35203e-07
2.5071e-07
2.71744e-07
3.00888e-07
3.42233e-07
4.04881e-07
4.41282e-07
4.52719e-07
4.42049e-07
4.12993e-07
3.69565e-07
3.15303e-07
2.52198e-07
1.79656e-07
9.83923e-08
4.17937e-08
3.8495e-08
3.87143e-08
3.91554e-08
3.98192e-08
4.07082e-08
4.18257e-08
4.31764e-08
4.47671e-08
4.66065e-08
4.87023e-08
5.10617e-08
5.36918e-08
5.65995e-08
5.97916e-08
6.32743e-08
6.70524e-08
7.11286e-08
7.55006e-08
8.00264e-08
8.46954e-08
8.94898e-08
9.43833e-08
9.93401e-08
1.04314e-07
1.09246e-07
1.14198e-07
1.19191e-07
1.24244e-07
1.29366e-07
1.34557e-07
1.39761e-07
1.44985e-07
1.502e-07
1.55395e-07
1.60568e-07
1.65715e-07
1.70703e-07
1.75697e-07
1.80904e-07
1.86538e-07
1.92836e-07
2.00051e-07
2.08463e-07
2.18699e-07
2.319e-07
2.4952e-07
2.73481e-07
3.06325e-07
3.51697e-07
4.1614e-07
4.50812e-07
4.58627e-07
4.43625e-07
4.1045e-07
3.63859e-07
3.07971e-07
2.45224e-07
1.75178e-07
9.75558e-08
4.24837e-08
3.78818e-08
3.81019e-08
3.85448e-08
3.92121e-08
4.01069e-08
4.12333e-08
4.25967e-08
4.42035e-08
4.60609e-08
4.81769e-08
5.05599e-08
5.32187e-08
5.61624e-08
5.94e-08
6.29408e-08
6.67947e-08
7.09731e-08
7.53347e-08
7.98686e-08
8.45596e-08
8.93856e-08
9.43157e-08
9.93082e-08
1.04308e-07
1.09242e-07
1.14168e-07
1.1912e-07
1.24119e-07
1.29171e-07
1.34268e-07
1.39425e-07
1.44587e-07
1.4973e-07
1.54857e-07
1.59948e-07
1.64952e-07
1.69791e-07
1.7473e-07
1.79926e-07
1.85604e-07
1.92016e-07
1.99458e-07
2.08073e-07
2.18889e-07
2.33242e-07
2.52902e-07
2.80201e-07
3.18016e-07
3.68974e-07
4.31694e-07
4.60942e-07
4.62894e-07
4.42804e-07
4.05728e-07
3.56555e-07
2.99558e-07
2.37502e-07
1.70477e-07
9.70647e-08
4.33926e-08
3.75075e-08
3.77272e-08
3.81696e-08
3.88363e-08
3.97309e-08
4.08578e-08
4.22231e-08
4.38336e-08
4.56974e-08
4.78231e-08
5.02203e-08
5.28988e-08
5.58683e-08
5.91379e-08
6.27154e-08
6.66057e-08
7.08105e-08
7.51927e-08
7.97503e-08
8.44717e-08
8.93359e-08
9.43117e-08
9.93564e-08
1.04415e-07
1.09417e-07
1.14278e-07
1.19188e-07
1.2416e-07
1.29193e-07
1.34273e-07
1.39413e-07
1.44561e-07
1.4969e-07
1.54808e-07
1.5991e-07
1.64661e-07
1.69296e-07
1.74069e-07
1.79255e-07
1.8496e-07
1.91444e-07
1.99006e-07
2.07928e-07
2.19367e-07
2.3488e-07
2.56691e-07
2.88181e-07
3.3485e-07
4.06216e-07
4.51249e-07
4.70324e-07
4.65639e-07
4.40738e-07
4.00123e-07
3.48671e-07
2.90852e-07
2.29721e-07
1.65503e-07
9.61365e-08
4.42756e-08
3.72717e-08
3.74905e-08
3.79314e-08
3.8596e-08
3.94881e-08
4.06128e-08
4.19765e-08
4.3587e-08
4.5453e-08
4.75845e-08
4.99924e-08
5.26885e-08
5.56846e-08
5.89927e-08
6.26232e-08
6.65835e-08
7.07498e-08
7.51195e-08
7.96833e-08
8.4425e-08
8.93191e-08
9.433e-08
9.941e-08
1.04497e-07
1.09513e-07
1.1436e-07
1.19259e-07
1.24224e-07
1.29254e-07
1.34328e-07
1.39455e-07
1.44584e-07
1.49677e-07
1.54727e-07
1.59708e-07
1.64319e-07
1.68824e-07
1.73501e-07
1.78651e-07
1.84397e-07
1.90972e-07
1.98655e-07
2.07864e-07
2.19819e-07
2.36143e-07
2.5909e-07
2.92002e-07
3.40299e-07
4.13802e-07
4.57666e-07
4.73781e-07
4.65482e-07
4.37126e-07
3.93704e-07
3.40376e-07
2.81852e-07
2.21519e-07
1.60157e-07
9.54502e-08
4.5157e-08
3.71475e-08
3.73653e-08
3.78041e-08
3.84658e-08
3.93546e-08
4.04757e-08
4.18362e-08
4.34444e-08
4.53099e-08
4.74438e-08
4.98582e-08
5.25666e-08
5.55835e-08
5.89248e-08
6.26091e-08
6.65339e-08
7.06952e-08
7.50721e-08
7.96544e-08
8.44237e-08
8.93521e-08
9.44003e-08
9.95158e-08
1.0463e-07
1.09656e-07
1.14486e-07
1.19374e-07
1.24333e-07
1.29362e-07
1.34436e-07
1.39559e-07
1.44683e-07
1.49758e-07
1.5475e-07
1.59575e-07
1.64018e-07
1.68377e-07
1.72941e-07
1.78012e-07
1.83913e-07
1.90673e-07
1.98552e-07
2.08183e-07
2.20919e-07
2.3853e-07
2.63404e-07
2.98801e-07
3.4942e-07
4.23589e-07
4.64921e-07
4.7714e-07
4.64772e-07
4.32786e-07
3.86502e-07
3.3135e-07
2.72287e-07
2.12894e-07
1.5426e-07
9.42508e-08
4.59137e-08
3.71238e-08
3.73404e-08
3.77771e-08
3.84357e-08
3.93206e-08
4.04377e-08
4.17943e-08
4.33992e-08
4.5263e-08
4.73974e-08
4.98154e-08
5.2531e-08
5.55584e-08
5.89111e-08
6.25987e-08
6.65239e-08
7.06906e-08
7.50825e-08
7.9689e-08
8.44907e-08
8.94571e-08
9.45455e-08
9.96978e-08
1.04839e-07
1.09872e-07
1.14678e-07
1.19548e-07
1.24498e-07
1.29525e-07
1.346e-07
1.39724e-07
1.44863e-07
1.49968e-07
1.55032e-07
1.59536e-07
1.63753e-07
1.67964e-07
1.72459e-07
1.77549e-07
1.83589e-07
1.90628e-07
1.98644e-07
2.08755e-07
2.22457e-07
2.41828e-07
2.69783e-07
3.10181e-07
3.66896e-07
4.38388e-07
4.73868e-07
4.80234e-07
4.62932e-07
4.27165e-07
3.78259e-07
3.21586e-07
2.62103e-07
2.03595e-07
1.47678e-07
9.25488e-08
4.64702e-08
3.71929e-08
3.74085e-08
3.78429e-08
3.84985e-08
3.93797e-08
4.04926e-08
4.18453e-08
4.34473e-08
4.53097e-08
4.74455e-08
4.9869e-08
5.25963e-08
5.56461e-08
5.90405e-08
6.26907e-08
6.65981e-08
7.07605e-08
7.51697e-08
7.98037e-08
8.46413e-08
8.96495e-08
9.47811e-08
9.99723e-08
1.0514e-07
1.10177e-07
1.1495e-07
1.19795e-07
1.24728e-07
1.29747e-07
1.34818e-07
1.39932e-07
1.4506e-07
1.50121e-07
1.55014e-07
1.59329e-07
1.63392e-07
1.67506e-07
1.71965e-07
1.77083e-07
1.83221e-07
1.90437e-07
1.98796e-07
2.09496e-07
2.24205e-07
2.4541e-07
2.77122e-07
3.26291e-07
4.05668e-07
4.57469e-07
4.81955e-07
4.81321e-07
4.59105e-07
4.19786e-07
3.68464e-07
3.1048e-07
2.5084e-07
1.93454e-07
1.40195e-07
8.96071e-08
4.66758e-08
3.73489e-08
3.75634e-08
3.79958e-08
3.86484e-08
3.9526e-08
4.06351e-08
4.19842e-08
4.35835e-08
4.54449e-08
4.75819e-08
5.00093e-08
5.27426e-08
5.57971e-08
5.91875e-08
6.28318e-08
6.67394e-08
7.09114e-08
7.53404e-08
8.00055e-08
8.48837e-08
8.99384e-08
9.51175e-08
1.0035e-07
1.05544e-07
1.10581e-07
1.15311e-07
1.20121e-07
1.25031e-07
1.30037e-07
1.35106e-07
1.40225e-07
1.454e-07
1.50598e-07
1.55066e-07
1.59105e-07
1.63007e-07
1.67057e-07
1.71533e-07
1.76721e-07
1.82924e-07
1.90495e-07
1.99325e-07
2.10694e-07
2.2631e-07
2.4863e-07
2.81533e-07
3.31801e-07
4.12654e-07
4.62565e-07
4.8339e-07
4.78527e-07
4.52401e-07
4.10053e-07
3.56826e-07
2.9802e-07
2.3852e-07
1.82309e-07
1.31689e-07
8.57249e-08
4.64979e-08
3.75866e-08
3.78002e-08
3.82306e-08
3.88805e-08
3.97548e-08
4.08605e-08
4.22066e-08
4.38041e-08
4.56661e-08
4.78077e-08
5.02459e-08
5.29986e-08
5.60822e-08
5.94311e-08
6.30553e-08
6.69597e-08
7.1143e-08
7.55956e-08
8.02974e-08
8.52222e-08
9.03297e-08
9.5562e-08
1.0084e-07
1.06061e-07
1.11092e-07
1.15767e-07
1.20531e-07
1.25405e-07
1.30385e-07
1.35433e-07
1.40516e-07
1.45626e-07
1.50602e-07
1.54841e-07
1.58714e-07
1.62542e-07
1.66621e-07
1.71234e-07
1.76669e-07
1.83216e-07
1.91121e-07
2.00565e-07
2.12962e-07
2.30131e-07
2.54578e-07
2.89966e-07
3.4217e-07
4.22767e-07
4.68833e-07
4.8433e-07
4.74135e-07
4.43499e-07
3.97889e-07
3.42778e-07
2.83351e-07
2.24338e-07
1.69684e-07
1.21891e-07
8.05225e-08
4.57832e-08
3.79018e-08
3.81145e-08
3.85434e-08
3.91909e-08
4.00624e-08
4.11651e-08
4.25085e-08
4.41042e-08
4.59664e-08
4.8112e-08
5.05614e-08
5.334e-08
5.63889e-08
5.97182e-08
6.33362e-08
6.72477e-08
7.14511e-08
7.59363e-08
8.06815e-08
8.56594e-08
9.08268e-08
9.61191e-08
1.01448e-07
1.06696e-07
1.11716e-07
1.1632e-07
1.21022e-07
1.25846e-07
1.30792e-07
1.35835e-07
1.40953e-07
1.46231e-07
1.50643e-07
1.54538e-07
1.58235e-07
1.6203e-07
1.66202e-07
1.7104e-07
1.76868e-07
1.84092e-07
1.9224e-07
2.02486e-07
2.1637e-07
2.35978e-07
2.64229e-07
3.052e-07
3.63767e-07
4.39677e-07
4.77265e-07
4.84333e-07
4.67066e-07
4.31166e-07
3.82207e-07
3.25493e-07
2.65944e-07
2.07968e-07
1.55281e-07
1.10558e-07
7.39543e-08
4.44208e-08
3.82908e-08
3.8503e-08
3.89306e-08
3.95764e-08
4.04458e-08
4.15463e-08
4.28878e-08
4.44822e-08
4.6344e-08
4.84893e-08
5.0936e-08
5.37037e-08
5.67399e-08
6.00616e-08
6.36809e-08
6.76048e-08
7.18336e-08
7.63587e-08
8.11583e-08
8.61943e-08
9.143e-08
9.67908e-08
1.02175e-07
1.07451e-07
1.12451e-07
1.16964e-07
1.21582e-07
1.26327e-07
1.31245e-07
1.36234e-07
1.4123e-07
1.46166e-07
1.50271e-07
1.53972e-07
1.57609e-07
1.61468e-07
1.65816e-07
1.70924e-07
1.77096e-07
1.84723e-07
1.93579e-07
2.05043e-07
2.20943e-07
2.43843e-07
2.77618e-07
3.28872e-07
4.11659e-07
4.63127e-07
4.85084e-07
4.8116e-07
4.55887e-07
4.14378e-07
3.61958e-07
3.03773e-07
2.44483e-07
1.88101e-07
1.37923e-07
9.66185e-08
6.50351e-08
4.17944e-08
3.87507e-08
3.89625e-08
3.93893e-08
4.00339e-08
4.09021e-08
4.20016e-08
4.33429e-08
4.49391e-08
4.68055e-08
4.89599e-08
5.14212e-08
5.41509e-08
5.71641e-08
6.04744e-08
6.40935e-08
6.80295e-08
7.22845e-08
7.68515e-08
8.17091e-08
8.68161e-08
9.21339e-08
9.7576e-08
1.03023e-07
1.08324e-07
1.13291e-07
1.17691e-07
1.22207e-07
1.26872e-07
1.31752e-07
1.36788e-07
1.41873e-07
1.46031e-07
1.49711e-07
1.5325e-07
1.56918e-07
1.60958e-07
1.6561e-07
1.71125e-07
1.77787e-07
1.85876e-07
1.95615e-07
2.08629e-07
2.27075e-07
2.53971e-07
2.9356e-07
3.51233e-07
4.3008e-07
4.72492e-07
4.84535e-07
4.71514e-07
4.38791e-07
3.91869e-07
3.36242e-07
2.77032e-07
2.18652e-07
1.64627e-07
1.17719e-07
8.03466e-08
5.3848e-08
3.73843e-08
3.9283e-08
3.94948e-08
3.99211e-08
4.05651e-08
4.14324e-08
4.25315e-08
4.38733e-08
4.54716e-08
4.73439e-08
4.95119e-08
5.19436e-08
5.46519e-08
5.76504e-08
6.09528e-08
6.45719e-08
6.85181e-08
7.27973e-08
7.74066e-08
8.23279e-08
8.75194e-08
9.29376e-08
9.848e-08
1.04e-07
1.09317e-07
1.1422e-07
1.18482e-07
1.22856e-07
1.27381e-07
1.32195e-07
1.37394e-07
1.41545e-07
1.45203e-07
1.4872e-07
1.5232e-07
1.56207e-07
1.60592e-07
1.65706e-07
1.71821e-07
1.7932e-07
1.87799e-07
1.98672e-07
2.13803e-07
2.35874e-07
2.68958e-07
3.19707e-07
3.99959e-07
4.55661e-07
4.81613e-07
4.80239e-07
4.56075e-07
4.1454e-07
3.61344e-07