/*--------------------------------*- C++ -*----------------------------------*\
| =========                 |                                                 |
| \\      /  F ield         | OpenFOAM: The Open Source CFD Toolbox           |
|  \\    /   O peration     | Version:  v1906                                 |
|   \\  /    A nd           | Web:      www.OpenFOAM.com                      |
|    \\/     M anipulation  |                                                 |
\*---------------------------------------------------------------------------*/
FoamFile
{
    version     2.0;
    format      ascii;
    class       volScalarField;
    location    "2.83";
    object      HCO;
}
// * * * * * * * * * * * * * * * * * * * * * * * * * * * * * * * * * * * * * //

dimensions      [0 0 0 0 0 0 0];


internalField   nonuniform List<scalar> 
26400
(
1.42443e-08
1.42264e-08
1.41904e-08
1.41367e-08
1.40651e-08
1.3976e-08
1.38694e-08
1.37456e-08
1.36049e-08
1.34475e-08
1.32738e-08
1.3084e-08
1.28787e-08
1.26581e-08
1.24228e-08
1.21732e-08
1.19098e-08
1.16332e-08
1.13439e-08
1.10425e-08
1.07298e-08
1.04064e-08
1.00731e-08
9.73077e-09
9.38032e-09
9.02275e-09
8.65915e-09
8.29075e-09
7.91893e-09
7.54523e-09
7.17149e-09
6.79453e-09
6.41542e-09
6.03541e-09
5.65593e-09
5.27869e-09
4.90355e-09
4.53199e-09
4.1659e-09
3.80634e-09
3.45319e-09
3.1064e-09
2.76598e-09
2.4321e-09
2.10518e-09
1.78613e-09
1.47679e-09
1.18068e-09
9.04729e-10
6.6279e-10
4.61424e-10
2.99892e-10
1.77371e-10
9.20705e-11
3.99023e-11
1.34927e-11
3.24368e-12
4.7579e-13
2.98615e-14
7.18164e-16
1.44024e-08
1.4384e-08
1.43471e-08
1.4292e-08
1.42187e-08
1.41273e-08
1.40182e-08
1.38915e-08
1.37475e-08
1.35866e-08
1.3409e-08
1.32152e-08
1.30055e-08
1.27804e-08
1.25404e-08
1.2286e-08
1.20177e-08
1.1736e-08
1.14415e-08
1.1135e-08
1.0817e-08
1.04884e-08
1.01499e-08
9.80238e-09
9.44676e-09
9.08407e-09
8.71542e-09
8.34204e-09
7.96531e-09
7.58678e-09
7.20814e-09
6.82654e-09
6.44313e-09
6.05918e-09
5.67612e-09
5.29565e-09
4.91771e-09
4.5438e-09
4.17576e-09
3.81473e-09
3.46061e-09
3.11335e-09
2.773e-09
2.43973e-09
2.11397e-09
1.79661e-09
1.48936e-09
1.19556e-09
9.21611e-10
6.80293e-10
4.77929e-10
3.13922e-10
1.87866e-10
9.8696e-11
4.32118e-11
1.46748e-11
3.51365e-12
5.1099e-13
3.20851e-14
7.78488e-16
1.45959e-08
1.45769e-08
1.45388e-08
1.44818e-08
1.44061e-08
1.43118e-08
1.41992e-08
1.40686e-08
1.39203e-08
1.37546e-08
1.3572e-08
1.33729e-08
1.31576e-08
1.29267e-08
1.26807e-08
1.242e-08
1.21453e-08
1.18572e-08
1.15563e-08
1.12432e-08
1.09187e-08
1.05835e-08
1.02384e-08
9.88439e-09
9.52235e-09
9.15332e-09
8.77843e-09
8.39894e-09
8.01622e-09
7.63181e-09
7.24731e-09
6.86015e-09
6.47162e-09
6.08296e-09
5.69564e-09
5.31133e-09
4.93007e-09
4.55337e-09
4.18306e-09
3.82031e-09
3.46506e-09
3.11726e-09
2.77696e-09
2.44434e-09
2.11984e-09
1.80429e-09
1.49935e-09
1.20811e-09
9.3653e-10
6.96475e-10
4.93476e-10
3.2726e-10
1.98021e-10
1.05368e-10
4.68276e-11
1.60807e-11
3.8549e-12
5.5725e-13
3.48766e-14
8.48621e-16
1.47987e-08
1.4779e-08
1.47394e-08
1.46802e-08
1.46016e-08
1.45039e-08
1.43872e-08
1.42521e-08
1.40988e-08
1.39278e-08
1.37395e-08
1.35343e-08
1.33128e-08
1.30755e-08
1.28228e-08
1.25554e-08
1.22739e-08
1.19788e-08
1.16708e-08
1.13507e-08
1.10191e-08
1.06769e-08
1.03249e-08
9.96393e-09
9.59506e-09
9.21933e-09
8.83787e-09
8.45196e-09
8.06297e-09
7.67247e-09
7.28193e-09
6.88909e-09
6.49535e-09
6.10196e-09
5.71037e-09
5.32228e-09
4.93782e-09
4.55847e-09
4.18608e-09
3.82184e-09
3.46571e-09
3.11765e-09
2.77773e-09
2.44616e-09
2.1234e-09
1.81032e-09
1.50855e-09
1.22106e-09
9.5339e-10
7.16102e-10
5.11975e-10
3.42898e-10
2.10051e-10
1.13655e-10
5.17568e-11
1.80399e-11
4.32104e-12
6.1473e-13
3.81229e-14
9.33201e-16
1.5006e-08
1.49852e-08
1.49438e-08
1.4882e-08
1.47999e-08
1.4698e-08
1.45767e-08
1.44364e-08
1.42775e-08
1.41005e-08
1.3906e-08
1.36943e-08
1.34662e-08
1.3222e-08
1.29624e-08
1.26879e-08
1.23991e-08
1.20968e-08
1.17816e-08
1.14542e-08
1.11153e-08
1.07659e-08
1.04066e-08
1.00386e-08
9.66277e-09
9.28018e-09
8.89202e-09
8.49957e-09
8.10424e-09
7.70757e-09
7.31098e-09
6.91248e-09
6.51355e-09
6.11547e-09
5.7197e-09
5.32794e-09
4.9404e-09
4.55857e-09
4.18429e-09
3.81877e-09
3.46195e-09
3.11383e-09
2.7745e-09
2.44421e-09
2.12346e-09
1.81317e-09
1.51506e-09
1.23223e-09
9.70487e-10
7.41376e-10
5.31041e-10
3.57797e-10
2.21649e-10
1.22515e-10
5.8599e-11
2.07353e-11
4.92349e-12
6.86569e-13
4.20366e-14
1.03055e-15
1.52178e-08
1.51958e-08
1.51519e-08
1.50864e-08
1.49999e-08
1.48929e-08
1.4766e-08
1.46196e-08
1.44544e-08
1.42709e-08
1.40697e-08
1.38512e-08
1.3616e-08
1.33647e-08
1.30978e-08
1.2816e-08
1.25199e-08
1.22102e-08
1.18875e-08
1.15526e-08
1.12064e-08
1.08495e-08
1.0483e-08
1.01077e-08
9.72475e-09
9.33518e-09
8.94022e-09
8.54115e-09
8.13941e-09
7.73655e-09
7.33392e-09
6.92977e-09
6.5257e-09
6.123e-09
5.72314e-09
5.32782e-09
4.93735e-09
4.55323e-09
4.17729e-09
3.81074e-09
3.45352e-09
3.10564e-09
2.7672e-09
2.43849e-09
2.12005e-09
1.81289e-09
1.51872e-09
1.24046e-09
9.8311e-10
7.55123e-10
5.44942e-10
3.70783e-10
2.33106e-10
1.32716e-10
7.13502e-11
2.44697e-11
5.64108e-12
7.59998e-13
4.5578e-14
1.11464e-15
1.54373e-08
1.54133e-08
1.53654e-08
1.52943e-08
1.52014e-08
1.50876e-08
1.49537e-08
1.48003e-08
1.46281e-08
1.44376e-08
1.42292e-08
1.40036e-08
1.37612e-08
1.35026e-08
1.32284e-08
1.29393e-08
1.26357e-08
1.23185e-08
1.19883e-08
1.16459e-08
1.12921e-08
1.09278e-08
1.05538e-08
1.01712e-08
9.78099e-09
9.38436e-09
8.9825e-09
8.57675e-09
8.16854e-09
7.75946e-09
7.35079e-09
6.94102e-09
6.53183e-09
6.12455e-09
5.72065e-09
5.32188e-09
4.92859e-09
4.54235e-09
4.16506e-09
3.79779e-09
3.44046e-09
3.09306e-09
2.75574e-09
2.42881e-09
2.11291e-09
1.80923e-09
1.51981e-09
1.24834e-09
1.00155e-09
7.68762e-10
5.56991e-10
3.81894e-10
2.42981e-10
1.40617e-10
7.67114e-11
2.66489e-11
6.10581e-12
7.98439e-13
4.7043e-14
1.15057e-15
1.5672e-08
1.56448e-08
1.55897e-08
1.55051e-08
1.54017e-08
1.52788e-08
1.51367e-08
1.49757e-08
1.47962e-08
1.45986e-08
1.43832e-08
1.41506e-08
1.39011e-08
1.36354e-08
1.3354e-08
1.30575e-08
1.27465e-08
1.24218e-08
1.20841e-08
1.1734e-08
1.13726e-08
1.10007e-08
1.06192e-08
1.02291e-08
9.83163e-09
9.42782e-09
9.01898e-09
8.60645e-09
8.19171e-09
7.77637e-09
7.36163e-09
6.94623e-09
6.53193e-09
6.12008e-09
5.71217e-09
5.30993e-09
4.91379e-09
4.52524e-09
4.14725e-09
3.77973e-09
3.42266e-09
3.07605e-09
2.74007e-09
2.41506e-09
2.10165e-09
1.80098e-09
1.515e-09
1.24711e-09
1.00353e-09
7.73786e-10
5.6487e-10
3.91356e-10
2.52726e-10
1.49225e-10
8.28496e-11
2.93185e-11
6.69095e-12
8.45322e-13
4.87917e-14
1.19323e-15
1.58315e-08
1.58076e-08
1.57592e-08
1.56855e-08
1.55851e-08
1.54559e-08
1.53085e-08
1.51419e-08
1.49566e-08
1.47529e-08
1.45312e-08
1.42921e-08
1.40359e-08
1.37633e-08
1.34748e-08
1.3171e-08
1.28527e-08
1.25204e-08
1.21751e-08
1.18174e-08
1.14483e-08
1.10687e-08
1.06796e-08
1.0282e-08
9.87702e-09
9.46592e-09
9.04999e-09
8.63059e-09
8.20925e-09
7.78759e-09
7.36678e-09
6.94574e-09
6.52633e-09
6.10993e-09
5.69808e-09
5.29255e-09
4.89391e-09
4.50386e-09
4.1251e-09
3.75745e-09
3.40082e-09
3.05524e-09
2.72086e-09
2.39807e-09
2.08756e-09
1.79046e-09
1.50864e-09
1.24504e-09
1.00433e-09
7.77386e-10
5.71469e-10
4.00116e-10
2.62657e-10
1.58919e-10
9.00109e-11
3.24731e-11
7.36884e-12
8.88244e-13
4.95826e-14
1.19613e-15
1.5953e-08
1.59315e-08
1.58879e-08
1.58217e-08
1.57318e-08
1.56167e-08
1.54745e-08
1.53024e-08
1.51121e-08
1.49026e-08
1.46748e-08
1.44292e-08
1.41664e-08
1.3887e-08
1.35914e-08
1.32805e-08
1.29548e-08
1.2615e-08
1.2262e-08
1.18967e-08
1.15198e-08
1.11324e-08
1.07355e-08
1.03302e-08
9.91769e-09
9.49919e-09
9.07605e-09
8.6497e-09
8.22167e-09
7.79362e-09
7.3667e-09
6.93998e-09
6.51541e-09
6.09437e-09
5.67839e-09
5.26916e-09
4.86721e-09
4.47689e-09
4.09812e-09
3.73083e-09
3.37498e-09
3.03066e-09
2.69811e-09
2.37778e-09
2.07054e-09
1.77778e-09
1.50191e-09
1.24695e-09
1.00537e-09
7.80053e-10
5.77233e-10
4.08779e-10
2.73837e-10
1.71789e-10
9.88241e-11
3.61615e-11
8.15016e-12
9.28135e-13
4.97876e-14
1.17676e-15
1.60511e-08
1.60311e-08
1.59907e-08
1.59293e-08
1.58461e-08
1.574e-08
1.56094e-08
1.54525e-08
1.52669e-08
1.50497e-08
1.48148e-08
1.45625e-08
1.4293e-08
1.40068e-08
1.37044e-08
1.33864e-08
1.30535e-08
1.27063e-08
1.23457e-08
1.19725e-08
1.15878e-08
1.11925e-08
1.07877e-08
1.03746e-08
9.95442e-09
9.5284e-09
9.09795e-09
8.66455e-09
8.22977e-09
7.7953e-09
7.36225e-09
6.92987e-09
6.50022e-09
6.07476e-09
5.65519e-09
5.24262e-09
4.83874e-09
4.44742e-09
4.06833e-09
3.70127e-09
3.34614e-09
3.00303e-09
2.67215e-09
2.35398e-09
2.04938e-09
1.75975e-09
1.48744e-09
1.23635e-09
9.98975e-10
7.78285e-10
5.80462e-10
4.16362e-10
2.86215e-10
1.93407e-10
1.08896e-10
3.98528e-11
8.86351e-12
9.41003e-13
4.77179e-14
1.0833e-15
1.6136e-08
1.61169e-08
1.60783e-08
1.60198e-08
1.59405e-08
1.58395e-08
1.57154e-08
1.55663e-08
1.53902e-08
1.51844e-08
1.49459e-08
1.46892e-08
1.44147e-08
1.41229e-08
1.38144e-08
1.34898e-08
1.31499e-08
1.27953e-08
1.24271e-08
1.20461e-08
1.16535e-08
1.12502e-08
1.08374e-08
1.04163e-08
9.98828e-09
9.55461e-09
9.11676e-09
8.67623e-09
8.23462e-09
7.79365e-09
7.35437e-09
6.91613e-09
6.48102e-09
6.05044e-09
5.62591e-09
5.20829e-09
4.80509e-09
4.4142e-09
4.03557e-09
3.66915e-09
3.31498e-09
2.97319e-09
2.64407e-09
2.32813e-09
2.02625e-09
1.73984e-09
1.4712e-09
1.22413e-09
9.91262e-10
7.75489e-10
5.82763e-10
4.22366e-10
2.94091e-10
2.00263e-10
1.13679e-10
4.23125e-11
9.36816e-12
9.26204e-13
4.45106e-14
9.55875e-16
1.62149e-08
1.61964e-08
1.61591e-08
1.61027e-08
1.60263e-08
1.59292e-08
1.58099e-08
1.56671e-08
1.54989e-08
1.53027e-08
1.5076e-08
1.48153e-08
1.45361e-08
1.42389e-08
1.39244e-08
1.35931e-08
1.32461e-08
1.28841e-08
1.25081e-08
1.21192e-08
1.17183e-08
1.13068e-08
1.08859e-08
1.04567e-08
1.00207e-08
9.57933e-09
9.13401e-09
8.68633e-09
8.23792e-09
7.79052e-09
7.34516e-09
6.90132e-09
6.46119e-09
6.02628e-09
5.59827e-09
5.17833e-09
4.77364e-09
4.38189e-09
4.00291e-09
3.63661e-09
3.28304e-09
2.94234e-09
2.61483e-09
2.30104e-09
2.00186e-09
1.7187e-09
1.45381e-09
1.21091e-09
9.82784e-10
7.7234e-10
5.85369e-10
4.29756e-10
3.04742e-10
2.08647e-10
1.19061e-10
4.49612e-11
9.88068e-12
9.01566e-13
4.10785e-14
8.2459e-16
1.62917e-08
1.62736e-08
1.62373e-08
1.61823e-08
1.6108e-08
1.60136e-08
1.58981e-08
1.57601e-08
1.5598e-08
1.54096e-08
1.51925e-08
1.49438e-08
1.466e-08
1.43573e-08
1.40366e-08
1.36986e-08
1.33443e-08
1.29746e-08
1.25906e-08
1.21934e-08
1.17842e-08
1.13643e-08
1.0935e-08
1.04976e-08
1.00536e-08
9.60439e-09
9.1516e-09
8.69677e-09
8.24157e-09
7.78776e-09
7.33628e-09
6.88668e-09
6.44115e-09
6.00109e-09
5.56797e-09
5.1475e-09
4.74221e-09
4.34993e-09
3.97064e-09
3.60437e-09
3.25123e-09
2.91144e-09
2.58535e-09
2.27355e-09
1.97695e-09
1.69693e-09
1.43574e-09
1.19695e-09
9.73619e-10
7.68692e-10
5.88049e-10
4.39071e-10
3.2395e-10
2.18731e-10
1.24502e-10
4.76364e-11
1.03974e-11
9.23167e-13
3.93768e-14
7.29457e-16
1.63691e-08
1.63513e-08
1.63155e-08
1.62613e-08
1.61884e-08
1.60959e-08
1.59829e-08
1.58484e-08
1.56908e-08
1.55084e-08
1.52989e-08
1.50599e-08
1.47882e-08
1.44801e-08
1.41532e-08
1.38083e-08
1.34466e-08
1.3069e-08
1.26768e-08
1.22712e-08
1.18535e-08
1.1425e-08
1.09873e-08
1.05416e-08
1.00895e-08
9.63263e-09
9.17243e-09
8.71058e-09
8.24877e-09
7.78874e-09
7.33145e-09
6.87652e-09
6.42627e-09
5.98218e-09
5.54595e-09
5.12307e-09
4.71585e-09
4.3221e-09
3.94179e-09
3.57496e-09
3.22175e-09
2.88241e-09
2.55734e-09
2.24715e-09
1.95275e-09
1.67556e-09
1.41773e-09
1.1827e-09
9.63751e-10
7.63683e-10
5.87984e-10
4.42224e-10
3.2798e-10
2.2301e-10
1.28444e-10
5.04908e-11
1.11204e-11
9.831e-13
3.97091e-14
6.87023e-16
1.64495e-08
1.64318e-08
1.63962e-08
1.63424e-08
1.62701e-08
1.61785e-08
1.60671e-08
1.59347e-08
1.57802e-08
1.56019e-08
1.53982e-08
1.51667e-08
1.49048e-08
1.46092e-08
1.42761e-08
1.39244e-08
1.35552e-08
1.31697e-08
1.27692e-08
1.2355e-08
1.19287e-08
1.14916e-08
1.10454e-08
1.05916e-08
1.01318e-08
9.6674e-09
9.20014e-09
8.7316e-09
8.26345e-09
7.79743e-09
7.33439e-09
6.87397e-09
6.41841e-09
5.96908e-09
5.53089e-09
5.10598e-09
4.69679e-09
4.30128e-09
3.91951e-09
3.55162e-09
3.1978e-09
2.85836e-09
2.53374e-09
2.2246e-09
1.93187e-09
1.65697e-09
1.40202e-09
1.17033e-09
9.55587e-10
7.60338e-10
5.89505e-10
4.46953e-10
3.33572e-10
2.29144e-10
1.34505e-10
5.51661e-11
1.26966e-11
1.15527e-12
4.63605e-14
7.72884e-16
1.65351e-08
1.65173e-08
1.64817e-08
1.64279e-08
1.63557e-08
1.62645e-08
1.61536e-08
1.60223e-08
1.58696e-08
1.5694e-08
1.54942e-08
1.52681e-08
1.50136e-08
1.47279e-08
1.44076e-08
1.4049e-08
1.36722e-08
1.32787e-08
1.28699e-08
1.24472e-08
1.20124e-08
1.15669e-08
1.11127e-08
1.06513e-08
1.01844e-08
9.71343e-09
9.23995e-09
8.76553e-09
8.2918e-09
7.82043e-09
7.35222e-09
6.88688e-09
6.42676e-09
5.97344e-09
5.53162e-09
5.10339e-09
4.6911e-09
4.29286e-09
3.90875e-09
3.53894e-09
3.18368e-09
2.84332e-09
2.51833e-09
2.20939e-09
1.91744e-09
1.64385e-09
1.39073e-09
1.16138e-09
9.5068e-10
7.60218e-10
5.94049e-10
4.54599e-10
3.42113e-10
2.38507e-10
1.44133e-10
6.31041e-11
1.60114e-11
1.59025e-12
7.05773e-14
1.19782e-15
1.66273e-08
1.66094e-08
1.65736e-08
1.65196e-08
1.64472e-08
1.63559e-08
1.62451e-08
1.61142e-08
1.59623e-08
1.57883e-08
1.55909e-08
1.53685e-08
1.51194e-08
1.48411e-08
1.45311e-08
1.41859e-08
1.38016e-08
1.34e-08
1.29827e-08
1.25513e-08
1.21073e-08
1.16521e-08
1.11901e-08
1.07223e-08
1.02498e-08
9.7739e-09
9.29599e-09
8.81751e-09
8.33997e-09
7.86497e-09
7.39233e-09
6.922e-09
6.45639e-09
5.99981e-09
5.55431e-09
5.12211e-09
4.7057e-09
4.30358e-09
3.91596e-09
3.54308e-09
3.18524e-09
2.84282e-09
2.51631e-09
2.20635e-09
1.91378e-09
1.63978e-09
1.38598e-09
1.15479e-09
9.49915e-10
7.64261e-10
6.01926e-10
4.64759e-10
3.52746e-10
2.50112e-10
1.56767e-10
7.47595e-11
2.19047e-11
2.60627e-12
1.61447e-13
3.20902e-15
1.6727e-08
1.6709e-08
1.66731e-08
1.66189e-08
1.65462e-08
1.64547e-08
1.63438e-08
1.6213e-08
1.60615e-08
1.58883e-08
1.56924e-08
1.54725e-08
1.5227e-08
1.49541e-08
1.46517e-08
1.43171e-08
1.39473e-08
1.35383e-08
1.31136e-08
1.26745e-08
1.2226e-08
1.17688e-08
1.1304e-08
1.08327e-08
1.03561e-08
9.87568e-09
9.39273e-09
8.90882e-09
8.42556e-09
7.9446e-09
7.4667e-09
6.99109e-09
6.5204e-09
6.0588e-09
5.60827e-09
5.17097e-09
4.74929e-09
4.34213e-09
3.94972e-09
3.57236e-09
3.21037e-09
2.8642e-09
2.53439e-09
2.22161e-09
1.92676e-09
1.65101e-09
1.39597e-09
1.16391e-09
9.58273e-10
7.72779e-10
6.10931e-10
4.73858e-10
3.61048e-10
2.59125e-10
1.67689e-10
8.74889e-11
3.0737e-11
5.23302e-12
5.88967e-13
1.60964e-14
1.68339e-08
1.68159e-08
1.678e-08
1.6726e-08
1.66535e-08
1.65622e-08
1.64516e-08
1.63212e-08
1.61703e-08
1.59978e-08
1.5803e-08
1.55846e-08
1.53414e-08
1.50718e-08
1.47741e-08
1.44465e-08
1.40869e-08
1.36931e-08
1.32627e-08
1.28236e-08
1.23754e-08
1.19184e-08
1.14532e-08
1.09806e-08
1.05019e-08
1.00185e-08
9.53174e-09
9.04338e-09
8.55511e-09
8.0687e-09
7.585e-09
7.10315e-09
6.62779e-09
6.16093e-09
5.70465e-09
5.26119e-09
4.83295e-09
4.41958e-09
4.02125e-09
3.63823e-09
3.27084e-09
2.91952e-09
2.58483e-09
2.26745e-09
1.96827e-09
1.68841e-09
1.42938e-09
1.1932e-09
9.82782e-10
7.9434e-10
6.29466e-10
4.89218e-10
3.72695e-10
2.70251e-10
1.80863e-10
1.04365e-10
4.68333e-11
1.37551e-11
2.83896e-12
1.21612e-13
1.69471e-08
1.69294e-08
1.6894e-08
1.68408e-08
1.67694e-08
1.66794e-08
1.65705e-08
1.64418e-08
1.62928e-08
1.61225e-08
1.59298e-08
1.57137e-08
1.54726e-08
1.52049e-08
1.49089e-08
1.45824e-08
1.42231e-08
1.38281e-08
1.34181e-08
1.29938e-08
1.25562e-08
1.21063e-08
1.16456e-08
1.11754e-08
1.06973e-08
1.02131e-08
9.72446e-09
9.23339e-09
8.74184e-09
8.25186e-09
7.76465e-09
7.27912e-09
6.79968e-09
6.32826e-09
5.86688e-09
5.41764e-09
4.98272e-09
4.56441e-09
4.16098e-09
3.77273e-09
3.39998e-09
3.04314e-09
2.70273e-09
2.3794e-09
2.07399e-09
1.78755e-09
1.52132e-09
1.27689e-09
1.0563e-09
8.62046e-10
6.89214e-10
5.40916e-10
4.15981e-10
3.12632e-10
2.24309e-10
1.50508e-10
9.00021e-11
4.67669e-11
1.47109e-11
8.33249e-13
1.70548e-08
1.70364e-08
1.69997e-08
1.69443e-08
1.68699e-08
1.67761e-08
1.66624e-08
1.65278e-08
1.63717e-08
1.61928e-08
1.599e-08
1.57617e-08
1.55064e-08
1.52222e-08
1.49068e-08
1.45578e-08
1.41724e-08
1.37678e-08
1.33448e-08
1.29045e-08
1.24483e-08
1.19776e-08
1.14943e-08
1.10003e-08
1.04976e-08
9.98842e-09
9.47497e-09
8.95963e-09
8.44476e-09
7.93277e-09
7.4253e-09
6.92283e-09
6.42842e-09
5.94442e-09
5.47326e-09
5.01751e-09
4.57988e-09
4.15861e-09
3.75398e-09
3.3663e-09
2.99595e-09
2.64339e-09
2.30924e-09
1.99433e-09
1.69982e-09
1.42736e-09
1.17938e-09
9.59004e-10
7.68058e-10
5.98704e-10
4.55568e-10
3.37538e-10
2.43281e-10
1.63902e-10
9.94298e-11
5.18052e-11
2.09241e-11
4.67604e-12
4.02102e-13
9.16908e-15
1.71529e-08
1.71338e-08
1.70957e-08
1.70382e-08
1.6961e-08
1.68635e-08
1.67451e-08
1.66047e-08
1.64415e-08
1.6254e-08
1.60407e-08
1.57999e-08
1.55296e-08
1.52275e-08
1.4891e-08
1.45173e-08
1.41196e-08
1.3699e-08
1.32567e-08
1.27943e-08
1.23138e-08
1.18171e-08
1.13068e-08
1.07851e-08
1.02546e-08
9.71817e-09
9.17846e-09
8.63832e-09
8.1006e-09
7.56817e-09
7.04322e-09
6.52613e-09
6.02025e-09
5.52832e-09
5.05318e-09
4.59779e-09
4.16066e-09
3.74208e-09
3.3424e-09
2.96204e-09
2.60151e-09
2.26153e-09
1.94303e-09
1.64727e-09
1.37596e-09
1.13137e-09
9.16386e-10
7.31894e-10
5.70598e-10
4.30667e-10
3.16563e-10
2.27668e-10
1.54587e-10
9.6451e-11
5.36932e-11
2.57959e-11
9.4488e-12
1.86545e-12
1.3973e-13
2.86876e-15
1.72401e-08
1.72207e-08
1.71817e-08
1.71229e-08
1.70439e-08
1.6944e-08
1.68225e-08
1.66783e-08
1.65102e-08
1.63167e-08
1.60958e-08
1.58455e-08
1.55632e-08
1.52461e-08
1.48911e-08
1.45069e-08
1.40947e-08
1.36559e-08
1.31923e-08
1.27062e-08
1.21999e-08
1.16763e-08
1.11383e-08
1.0589e-08
1.00314e-08
9.46885e-09
8.90461e-09
8.34198e-09
7.78428e-09
7.23479e-09
6.69625e-09
6.1688e-09
5.65603e-09
5.16112e-09
4.68736e-09
4.23382e-09
3.80074e-09
3.38837e-09
2.99701e-09
2.62705e-09
2.27904e-09
1.95375e-09
1.65227e-09
1.37624e-09
1.12799e-09
9.10986e-10
7.27641e-10
5.69144e-10
4.33256e-10
3.17638e-10
2.26352e-10
1.57842e-10
1.02859e-10
6.07935e-11
3.25178e-11
1.48839e-11
5.11771e-12
9.28301e-13
6.19905e-14
1.10821e-15
1.73135e-08
1.72939e-08
1.72545e-08
1.71951e-08
1.71153e-08
1.70144e-08
1.68916e-08
1.67459e-08
1.65758e-08
1.63796e-08
1.61551e-08
1.58995e-08
1.56098e-08
1.52822e-08
1.49202e-08
1.45246e-08
1.40968e-08
1.36385e-08
1.31522e-08
1.26409e-08
1.2108e-08
1.1557e-08
1.09915e-08
1.04151e-08
9.83156e-09
9.24464e-09
8.65805e-09
8.07553e-09
7.50075e-09
6.93739e-09
6.38869e-09
5.85443e-09
5.33848e-09
4.84458e-09
4.37294e-09
3.92369e-09
3.49702e-09
3.09314e-09
2.71232e-09
2.35494e-09
2.02153e-09
1.7129e-09
1.43028e-09
1.17544e-09
9.50987e-10
7.60323e-10
6.01209e-10
4.64748e-10
3.48773e-10
2.51139e-10
1.75421e-10
1.19694e-10
7.57839e-11
4.36466e-11
2.27846e-11
1.02468e-11
3.51817e-12
6.56916e-13
4.40767e-14
8.11597e-16
1.73704e-08
1.73508e-08
1.73114e-08
1.72521e-08
1.71722e-08
1.70713e-08
1.69485e-08
1.6803e-08
1.66337e-08
1.64387e-08
1.62155e-08
1.59607e-08
1.567e-08
1.53408e-08
1.4973e-08
1.45667e-08
1.4123e-08
1.36439e-08
1.31329e-08
1.25946e-08
1.20337e-08
1.14549e-08
1.08623e-08
1.02601e-08
9.65235e-09
9.04326e-09
8.43697e-09
7.8375e-09
7.24877e-09
6.67465e-09
6.11878e-09
5.58031e-09
5.06327e-09
4.57168e-09
4.10397e-09
3.66047e-09
3.24143e-09
2.84706e-09
2.47755e-09
2.13319e-09
1.81442e-09
1.52201e-09
1.25725e-09
1.02219e-09
8.20019e-10
6.50248e-10
5.09617e-10
3.89461e-10
2.88068e-10
2.03519e-10
1.39353e-10
9.3292e-11
5.75836e-11
3.26008e-11
1.67951e-11
7.49377e-12
2.58679e-12
5.08014e-13
3.60888e-14
7.46826e-16
1.74088e-08
1.73894e-08
1.73506e-08
1.72918e-08
1.72124e-08
1.71115e-08
1.69884e-08
1.68428e-08
1.66758e-08
1.64856e-08
1.62694e-08
1.60234e-08
1.57386e-08
1.54134e-08
1.50455e-08
1.46329e-08
1.41745e-08
1.36713e-08
1.31283e-08
1.25574e-08
1.19663e-08
1.13599e-08
1.07419e-08
1.01159e-08
9.48584e-09
8.85704e-09
8.23404e-09
7.62097e-09
7.02171e-09
6.43999e-09
5.87975e-09
5.3395e-09
4.82389e-09
4.33378e-09
3.86968e-09
3.43204e-09
3.02112e-09
2.63697e-09
2.27959e-09
1.94903e-09
1.64554e-09
1.36976e-09
1.12294e-09
9.07278e-10
7.25463e-10
5.74932e-10
4.46187e-10
3.37245e-10
2.46272e-10
1.71628e-10
1.15785e-10
7.61789e-11
4.60945e-11
2.58455e-11
1.32934e-11
6.01117e-12
2.16199e-12
4.72466e-13
4.2252e-14
1.972e-15
1.74269e-08
1.74085e-08
1.73714e-08
1.73148e-08
1.72373e-08
1.7137e-08
1.70107e-08
1.68554e-08
1.66906e-08
1.65083e-08
1.6303e-08
1.60693e-08
1.58019e-08
1.5495e-08
1.51425e-08
1.47376e-08
1.42725e-08
1.37382e-08
1.31243e-08
1.25093e-08
1.18892e-08
1.12617e-08
1.06258e-08
9.98109e-09
9.32709e-09
8.68092e-09
8.04514e-09
7.42287e-09
6.81783e-09
6.23178e-09
5.66908e-09
5.12674e-09
4.61082e-09
4.12169e-09
3.66083e-09
3.22934e-09
2.82739e-09
2.45448e-09
2.11012e-09
1.79402e-09
1.50615e-09
1.24694e-09
1.01739e-09
8.19336e-10
6.52119e-10
5.13403e-10
3.94682e-10
2.94603e-10
2.11177e-10
1.46031e-10
9.72192e-11
6.19129e-11
3.73835e-11
2.11576e-11
1.10261e-11
5.12052e-12
1.97601e-12
5.3817e-13
8.91793e-14
1.52473e-14
1.7423e-08
1.74064e-08
1.7373e-08
1.73225e-08
1.72541e-08
1.71667e-08
1.70592e-08
1.69301e-08
1.67778e-08
1.65999e-08
1.63928e-08
1.61525e-08
1.58738e-08
1.55506e-08
1.51758e-08
1.47408e-08
1.42361e-08
1.36518e-08
1.30557e-08
1.24473e-08
1.18267e-08
1.11941e-08
1.05498e-08
9.89411e-09
9.22707e-09
8.56723e-09
7.91763e-09
7.28168e-09
6.66299e-09
6.0653e-09
5.48985e-09
4.94028e-09
4.41823e-09
3.92595e-09
3.46601e-09
3.04141e-09
2.65098e-09
2.29128e-09
1.96146e-09
1.66102e-09
1.38986e-09
1.14844e-09
9.3793e-10
7.55566e-10
5.98902e-10
4.65615e-10
3.53517e-10
2.60775e-10
1.859e-10
1.27835e-10
8.44763e-11
5.32887e-11
3.18392e-11
1.78442e-11
9.24301e-12
4.30516e-12
1.69698e-12
4.88547e-13
8.72255e-14
1.59716e-14
1.75907e-08
1.75735e-08
1.75391e-08
1.74868e-08
1.74161e-08
1.73258e-08
1.72144e-08
1.70803e-08
1.6921e-08
1.67337e-08
1.65148e-08
1.62598e-08
1.59632e-08
1.56183e-08
1.52165e-08
1.47471e-08
1.41956e-08
1.36222e-08
1.30295e-08
1.24194e-08
1.17935e-08
1.11532e-08
1.04996e-08
9.83335e-09
9.15413e-09
8.48025e-09
7.8167e-09
7.16786e-09
6.53779e-09
5.93042e-09
5.35031e-09
4.79805e-09
4.27525e-09
3.78436e-09
3.328e-09
2.90912e-09
2.52495e-09
2.17411e-09
1.8537e-09
1.56313e-09
1.30239e-09
1.07214e-09
8.72174e-10
6.99613e-10
5.51841e-10
4.26515e-10
3.21575e-10
2.35271e-10
1.66182e-10
1.13301e-10
7.41843e-11
4.6355e-11
2.74399e-11
1.52413e-11
7.83577e-12
3.64162e-12
1.45553e-12
4.44038e-13
8.55919e-14
1.66118e-14
1.77979e-08
1.77795e-08
1.77427e-08
1.7687e-08
1.76115e-08
1.75151e-08
1.73964e-08
1.72532e-08
1.70833e-08
1.68835e-08
1.665e-08
1.63782e-08
1.60627e-08
1.56971e-08
1.52737e-08
1.47839e-08
1.42177e-08
1.36343e-08
1.30326e-08
1.24133e-08
1.17775e-08
1.1127e-08
1.04634e-08
9.78839e-09
9.10318e-09
8.40851e-09
7.72833e-09
7.06614e-09
6.42561e-09
5.81057e-09
5.22584e-09
4.67145e-09
4.14877e-09
3.66033e-09
3.20899e-09
2.79529e-09
2.41717e-09
2.07282e-09
1.76072e-09
1.47874e-09
1.22703e-09
1.00651e-09
8.15734e-10
6.5171e-10
5.11755e-10
3.93505e-10
2.94919e-10
2.14296e-10
1.5028e-10
1.01693e-10
6.60157e-11
4.08397e-11
2.39012e-11
1.31248e-11
6.68623e-12
3.10043e-12
1.25583e-12
3.99783e-13
8.26209e-14
1.72132e-14
1.80177e-08
1.7998e-08
1.79586e-08
1.78989e-08
1.78181e-08
1.7715e-08
1.7588e-08
1.74349e-08
1.72533e-08
1.70396e-08
1.67898e-08
1.64988e-08
1.61603e-08
1.57671e-08
1.53107e-08
1.47825e-08
1.42268e-08
1.3645e-08
1.30391e-08
1.24117e-08
1.17654e-08
1.11028e-08
1.04265e-08
9.73845e-09
9.03992e-09
8.33147e-09
7.63893e-09
6.96618e-09
6.31716e-09
5.69592e-09
5.10771e-09
4.55204e-09
4.03013e-09
3.54458e-09
3.09842e-09
2.69074e-09
2.31926e-09
1.98198e-09
1.67728e-09
1.40317e-09
1.1598e-09
9.48288e-10
7.65897e-10
6.09555e-10
4.76555e-10
3.64543e-10
2.71523e-10
1.95874e-10
1.36386e-10
9.157e-11
5.8938e-11
3.61319e-11
2.0948e-11
1.13928e-11
5.75293e-12
2.65543e-12
1.08521e-12
3.6161e-13
8.14195e-14
1.78445e-14
1.82445e-08
1.82234e-08
1.81812e-08
1.81174e-08
1.8031e-08
1.79208e-08
1.77852e-08
1.76219e-08
1.74283e-08
1.72006e-08
1.69344e-08
1.66239e-08
1.62621e-08
1.58394e-08
1.53438e-08
1.48171e-08
1.42598e-08
1.36713e-08
1.30554e-08
1.24159e-08
1.17563e-08
1.10799e-08
1.03897e-08
9.68778e-09
8.97565e-09
8.25367e-09
7.54935e-09
6.86675e-09
6.21e-09
5.58333e-09
4.9924e-09
4.43617e-09
3.91571e-09
3.4337e-09
2.9932e-09
2.59185e-09
2.22716e-09
1.89694e-09
1.59939e-09
1.3332e-09
1.09806e-09
8.95174e-10
7.20633e-10
5.71414e-10
4.44834e-10
3.38571e-10
2.50676e-10
1.79599e-10
1.24266e-10
8.28464e-11
5.28921e-11
3.21154e-11
1.84114e-11
9.89218e-12
4.94254e-12
2.26977e-12
9.34383e-13
3.22581e-13
7.94401e-14
1.83975e-14
1.84768e-08
1.84542e-08
1.84092e-08
1.8341e-08
1.82487e-08
1.81311e-08
1.79865e-08
1.78126e-08
1.76064e-08
1.73644e-08
1.70819e-08
1.67533e-08
1.63717e-08
1.5929e-08
1.54169e-08
1.48769e-08
1.43068e-08
1.37047e-08
1.30743e-08
1.24198e-08
1.17451e-08
1.10539e-08
1.03493e-08
9.63348e-09
8.90795e-09
8.17278e-09
7.45717e-09
6.76531e-09
6.10149e-09
5.47011e-09
4.87723e-09
4.32121e-09
3.80308e-09
3.32571e-09
2.89117e-09
2.49645e-09
2.13882e-09
1.81595e-09
1.52599e-09
1.26765e-09
1.04116e-09
8.4602e-10
6.78707e-10
5.36105e-10
4.15502e-10
3.14587e-10
2.31457e-10
1.64638e-10
1.13177e-10
7.49076e-11
4.7438e-11
2.85506e-11
1.62134e-11
8.62377e-12
4.26493e-12
1.94362e-12
8.02662e-13
2.87016e-13
7.76723e-14
1.88424e-14
1.87143e-08
1.86902e-08
1.86421e-08
1.85693e-08
1.84709e-08
1.83454e-08
1.81912e-08
1.80058e-08
1.77861e-08
1.75284e-08
1.72276e-08
1.68774e-08
1.64694e-08
1.59921e-08
1.54787e-08
1.4931e-08
1.43493e-08
1.37333e-08
1.30877e-08
1.24174e-08
1.1727e-08
1.10206e-08
1.03016e-08
9.57223e-09
8.83376e-09
8.08588e-09
7.35956e-09
6.65911e-09
5.98889e-09
5.35352e-09
4.7594e-09
4.20428e-09
3.68922e-09
3.21757e-09
2.78961e-09
2.40197e-09
2.05173e-09
1.73644e-09
1.45421e-09
1.20381e-09
9.85818e-10
7.98529e-10
6.38392e-10
5.02283e-10
3.87505e-10
2.9179e-10
2.13311e-10
1.50662e-10
1.02934e-10
6.7642e-11
4.2479e-11
2.53127e-11
1.4207e-11
7.45951e-12
3.6432e-12
1.64591e-12
6.81088e-13
2.50331e-13
7.34618e-14
1.9029e-14
1.89571e-08
1.89314e-08
1.888e-08
1.88023e-08
1.86973e-08
1.85635e-08
1.8399e-08
1.82013e-08
1.79673e-08
1.76929e-08
1.73733e-08
1.70025e-08
1.65735e-08
1.60781e-08
1.55489e-08
1.49858e-08
1.43886e-08
1.37562e-08
1.30932e-08
1.24055e-08
1.16986e-08
1.09768e-08
1.02435e-08
9.50111e-09
8.75032e-09
7.99032e-09
7.25399e-09
6.54568e-09
5.86987e-09
5.23128e-09
4.6367e-09
4.08306e-09
3.57128e-09
3.10701e-09
2.68659e-09
2.30664e-09
1.9642e-09
1.65684e-09
1.38275e-09
1.14091e-09
9.31308e-10
7.51842e-10
5.9885e-10
4.69174e-10
3.60135e-10
2.69537e-10
1.95667e-10
1.37308e-10
9.31365e-11
6.07102e-11
3.77869e-11
2.23007e-11
1.23888e-11
6.4342e-12
3.10504e-12
1.38655e-12
5.7127e-13
2.14674e-13
6.8263e-14
1.89605e-14
1.9205e-08
1.91776e-08
1.91228e-08
1.904e-08
1.8928e-08
1.87854e-08
1.86099e-08
1.8399e-08
1.8149e-08
1.78557e-08
1.75134e-08
1.71155e-08
1.66542e-08
1.61511e-08
1.56093e-08
1.50312e-08
1.44183e-08
1.37709e-08
1.30875e-08
1.2381e-08
1.16568e-08
1.09195e-08
1.01724e-08
9.41753e-09
8.65518e-09
7.88374e-09
7.13815e-09
6.42282e-09
5.74232e-09
5.10149e-09
4.50739e-09
3.95645e-09
3.45067e-09
2.99351e-09
2.58077e-09
2.2088e-09
1.87449e-09
1.57536e-09
1.30966e-09
1.07648e-09
8.75957e-10
7.04675e-10
5.59014e-10
4.35874e-10
3.32649e-10
2.4724e-10
1.78062e-10
1.24091e-10
8.35154e-11
5.39493e-11
3.32244e-11
1.93692e-11
1.06166e-11
5.43411e-12
2.5824e-12
1.13728e-12
4.65984e-13
1.78358e-13
6.1073e-14
1.84985e-14
1.94581e-08
1.94289e-08
1.93706e-08
1.92824e-08
1.91631e-08
1.90111e-08
1.88242e-08
1.85992e-08
1.83325e-08
1.80191e-08
1.76526e-08
1.72247e-08
1.67471e-08
1.62252e-08
1.56633e-08
1.50652e-08
1.44331e-08
1.37673e-08
1.30656e-08
1.23401e-08
1.15984e-08
1.08458e-08
1.00855e-08
9.31916e-09
8.54619e-09
7.76404e-09
7.00997e-09
6.2885e-09
5.60439e-09
4.96257e-09
4.36914e-09
3.81971e-09
3.32268e-09
2.87407e-09
2.46991e-09
2.10659e-09
1.781e-09
1.49071e-09
1.23409e-09
1.01044e-09
8.19249e-10
6.56347e-10
5.18171e-10
4.01699e-10
3.04426e-10
2.2437e-10
1.60071e-10
1.10624e-10
7.37334e-11
4.71084e-11
2.86584e-11
1.64906e-11
8.91171e-12
4.4903e-12
2.0981e-12
9.08959e-13
3.68759e-13
1.43204e-13
5.26646e-14
1.75811e-14
1.97163e-08
1.96853e-08
1.96232e-08
1.95293e-08
1.94024e-08
1.92405e-08
1.90413e-08
1.88016e-08
1.85174e-08
1.81835e-08
1.77937e-08
1.73408e-08
1.6838e-08
1.62908e-08
1.57043e-08
1.5083e-08
1.44298e-08
1.37463e-08
1.30313e-08
1.22813e-08
1.15206e-08
1.07531e-08
9.98072e-09
9.20405e-09
8.42156e-09
7.62943e-09
6.86755e-09
6.14066e-09
5.45694e-09
4.81744e-09
4.22322e-09
3.6781e-09
3.18818e-09
2.74795e-09
2.35275e-09
1.99863e-09
1.6824e-09
1.40164e-09
1.15489e-09
9.41851e-10
7.60287e-10
6.06038e-10
4.75591e-10
3.66023e-10
2.74957e-10
2.00566e-10
1.41593e-10
9.67764e-11
6.3675e-11
4.00705e-11
2.39575e-11
1.35149e-11
7.14311e-12
3.51291e-12
1.60001e-12
6.75929e-13
2.68934e-13
1.05024e-13
4.14363e-14
1.57033e-14
1.99794e-08
1.99464e-08
1.98804e-08
1.97805e-08
1.96454e-08
1.94731e-08
1.92608e-08
1.90052e-08
1.87015e-08
1.83441e-08
1.79253e-08
1.74469e-08
1.69164e-08
1.63408e-08
1.57265e-08
1.50788e-08
1.44014e-08
1.36961e-08
1.29619e-08
1.21937e-08
1.14181e-08
1.06384e-08
9.85612e-09
9.07083e-09
8.28e-09
7.47869e-09
6.70947e-09
5.97694e-09
5.28973e-09
4.64822e-09
4.05492e-09
3.52156e-09
3.04249e-09
2.61268e-09
2.2277e-09
1.88377e-09
1.57781e-09
1.3075e-09
1.07154e-09
8.69899e-10
6.98495e-10
5.53293e-10
4.30898e-10
3.28529e-10
2.43977e-10
1.75598e-10
1.22395e-10
8.24058e-11
5.32675e-11
3.28417e-11
1.91764e-11
1.05259e-11
5.39565e-12
2.56746e-12
1.13033e-12
4.61975e-13
1.79323e-13
7.02067e-14
2.9393e-14
1.25365e-14
2.02491e-08
2.02141e-08
2.01439e-08
2.00376e-08
1.98938e-08
1.97103e-08
1.9484e-08
1.92112e-08
1.8887e-08
1.85055e-08
1.80552e-08
1.75444e-08
1.69812e-08
1.63733e-08
1.57277e-08
1.50505e-08
1.43463e-08
1.36177e-08
1.28642e-08
1.20806e-08
1.12916e-08
1.05015e-08
9.71116e-09
8.91851e-09
8.1199e-09
7.31074e-09
6.53531e-09
5.79734e-09
5.10591e-09
4.45978e-09
3.87809e-09
3.35555e-09
2.88717e-09
2.46803e-09
2.0938e-09
1.76082e-09
1.46611e-09
1.20739e-09
9.83672e-10
7.93738e-10
6.3282e-10
4.96974e-10
3.82944e-10
2.88133e-10
2.10543e-10
1.48759e-10
1.01701e-10
6.68632e-11
4.19683e-11
2.49431e-11