/*--------------------------------*- C++ -*----------------------------------*\
| =========                 |                                                 |
| \\      /  F ield         | OpenFOAM: The Open Source CFD Toolbox           |
|  \\    /   O peration     | Version:  v1906                                 |
|   \\  /    A nd           | Web:      www.OpenFOAM.com                      |
|    \\/     M anipulation  |                                                 |
\*---------------------------------------------------------------------------*/
FoamFile
{
    version     2.0;
    format      ascii;
    class       volScalarField;
    location    "2.83";
    object      HO2;
}
// * * * * * * * * * * * * * * * * * * * * * * * * * * * * * * * * * * * * * //

dimensions      [0 0 0 0 0 0 0];


internalField   nonuniform List<scalar> 
26400
(
5.5235e-07
5.53942e-07
5.57126e-07
5.61903e-07
5.68272e-07
5.76237e-07
5.85796e-07
5.96953e-07
6.09707e-07
6.24062e-07
6.40018e-07
6.57577e-07
6.76739e-07
6.97507e-07
7.19879e-07
7.43855e-07
7.69433e-07
7.96611e-07
8.25381e-07
8.55737e-07
8.87668e-07
9.21159e-07
9.56192e-07
9.92741e-07
1.03077e-06
1.07025e-06
1.11111e-06
1.15329e-06
1.19671e-06
1.24126e-06
1.28679e-06
1.33307e-06
1.38003e-06
1.42758e-06
1.47556e-06
1.52378e-06
1.57211e-06
1.62041e-06
1.66846e-06
1.71253e-06
1.75287e-06
1.7897e-06
1.82319e-06
1.85347e-06
1.88063e-06
1.90467e-06
1.92544e-06
1.94262e-06
1.95546e-06
1.96249e-06
1.96063e-06
1.94335e-06
1.92106e-06
1.88021e-06
1.76995e-06
1.35779e-06
1.18635e-06
1.13736e-06
1.16029e-06
1.33934e-06
5.41853e-07
5.43466e-07
5.46692e-07
5.5153e-07
5.57983e-07
5.6605e-07
5.75734e-07
5.87034e-07
5.99953e-07
6.14493e-07
6.30655e-07
6.4844e-07
6.67851e-07
6.88888e-07
7.11551e-07
7.35842e-07
7.61757e-07
7.89295e-07
8.18451e-07
8.49218e-07
8.81586e-07
9.15541e-07
9.51065e-07
9.88133e-07
1.02671e-06
1.06676e-06
1.10823e-06
1.15106e-06
1.19514e-06
1.24039e-06
1.28664e-06
1.33367e-06
1.38141e-06
1.42974e-06
1.47852e-06
1.52755e-06
1.57669e-06
1.62578e-06
1.67461e-06
1.71959e-06
1.76095e-06
1.79892e-06
1.83368e-06
1.86537e-06
1.89405e-06
1.9197e-06
1.94215e-06
1.96092e-06
1.975e-06
1.98225e-06
1.97778e-06
1.96801e-06
1.94968e-06
1.91063e-06
1.80085e-06
1.38602e-06
1.20915e-06
1.15404e-06
1.1726e-06
1.35148e-06
5.2873e-07
5.30369e-07
5.33647e-07
5.38565e-07
5.45123e-07
5.5332e-07
5.63159e-07
5.7464e-07
5.87765e-07
6.02535e-07
6.18951e-07
6.37015e-07
6.56729e-07
6.78095e-07
7.01112e-07
7.25782e-07
7.52103e-07
7.80074e-07
8.09691e-07
8.40946e-07
8.73832e-07
9.08335e-07
9.44437e-07
9.82114e-07
1.02134e-06
1.06206e-06
1.10424e-06
1.14779e-06
1.19265e-06
1.23869e-06
1.28578e-06
1.33367e-06
1.38228e-06
1.43149e-06
1.48117e-06
1.53109e-06
1.58112e-06
1.63109e-06
1.68078e-06
1.72671e-06
1.76912e-06
1.80826e-06
1.8443e-06
1.87738e-06
1.90759e-06
1.93487e-06
1.95904e-06
1.9796e-06
1.99552e-06
2.00465e-06
2.00215e-06
1.99416e-06
1.97688e-06
1.9381e-06
1.8287e-06
1.41479e-06
1.23407e-06
1.17231e-06
1.18611e-06
1.36458e-06
5.14639e-07
5.16307e-07
5.19643e-07
5.24647e-07
5.31318e-07
5.39656e-07
5.49662e-07
5.61335e-07
5.74676e-07
5.89687e-07
6.06369e-07
6.24723e-07
6.44751e-07
6.66454e-07
6.89834e-07
7.14892e-07
7.41627e-07
7.70039e-07
8.00122e-07
8.31873e-07
8.65283e-07
9.00339e-07
9.37025e-07
9.75316e-07
1.01518e-06
1.05659e-06
1.09947e-06
1.14377e-06
1.1894e-06
1.23625e-06
1.28417e-06
1.33291e-06
1.38239e-06
1.43249e-06
1.48304e-06
1.53383e-06
1.58471e-06
1.63552e-06
1.68599e-06
1.7328e-06
1.7762e-06
1.81642e-06
1.85366e-06
1.88806e-06
1.91969e-06
1.94848e-06
1.9742e-06
1.99628e-06
2.0136e-06
2.02403e-06
2.02341e-06
2.01633e-06
1.9979e-06
1.95531e-06
1.84226e-06
1.43974e-06
1.25927e-06
1.19129e-06
1.20127e-06
1.37831e-06
4.99904e-07
5.01604e-07
5.05003e-07
5.10101e-07
5.16894e-07
5.25382e-07
5.35562e-07
5.47435e-07
5.60998e-07
5.76254e-07
5.93202e-07
6.11844e-07
6.32183e-07
6.54219e-07
6.77955e-07
7.03392e-07
7.3053e-07
7.59368e-07
7.89905e-07
8.22135e-07
8.56051e-07
8.91642e-07
9.28892e-07
9.67777e-07
1.00827e-06
1.05033e-06
1.0939e-06
1.13893e-06
1.18531e-06
1.23294e-06
1.28169e-06
1.33126e-06
1.38159e-06
1.43255e-06
1.48397e-06
1.53562e-06
1.58732e-06
1.63891e-06
1.69012e-06
1.73773e-06
1.78202e-06
1.82324e-06
1.8616e-06
1.89724e-06
1.93021e-06
1.96043e-06
1.98756e-06
2.01087e-06
2.02885e-06
2.03838e-06
2.04117e-06
2.03423e-06
2.01069e-06
1.95326e-06
1.81342e-06
1.45155e-06
1.28207e-06
1.21054e-06
1.21964e-06
1.39312e-06
4.8456e-07
4.86298e-07
4.89773e-07
4.94979e-07
5.01912e-07
5.10565e-07
5.20934e-07
5.33015e-07
5.46808e-07
5.62311e-07
5.79525e-07
5.98452e-07
6.19094e-07
6.41453e-07
6.65531e-07
6.91332e-07
7.18856e-07
7.48103e-07
7.79072e-07
8.1176e-07
8.46159e-07
8.8226e-07
9.20047e-07
9.59499e-07
1.00059e-06
1.04327e-06
1.08751e-06
1.13322e-06
1.18034e-06
1.22873e-06
1.27827e-06
1.32867e-06
1.37985e-06
1.43167e-06
1.48396e-06
1.53645e-06
1.58898e-06
1.64131e-06
1.69315e-06
1.74144e-06
1.78649e-06
1.82858e-06
1.86794e-06
1.90473e-06
1.93899e-06
1.97063e-06
1.99928e-06
2.02416e-06
2.04376e-06
2.05515e-06
2.05923e-06
2.05119e-06
2.01908e-06
1.92757e-06
1.65139e-06
1.44373e-06
1.30159e-06
1.22878e-06
1.23897e-06
1.40909e-06
4.68541e-07
4.70333e-07
4.73913e-07
4.7927e-07
4.8638e-07
4.95229e-07
5.05809e-07
5.18115e-07
5.32144e-07
5.47895e-07
5.65372e-07
5.84575e-07
6.05508e-07
6.28174e-07
6.52578e-07
6.78723e-07
7.0661e-07
7.36242e-07
7.67618e-07
8.00734e-07
8.35587e-07
8.72166e-07
9.10457e-07
9.50441e-07
9.9209e-07
1.03537e-06
1.08022e-06
1.12659e-06
1.17439e-06
1.22352e-06
1.27382e-06
1.32504e-06
1.37707e-06
1.42978e-06
1.48299e-06
1.53641e-06
1.58984e-06
1.64295e-06
1.69523e-06
1.74396e-06
1.78954e-06
1.83231e-06
1.87253e-06
1.91034e-06
1.94579e-06
1.97872e-06
2.00871e-06
2.03482e-06
2.05518e-06
2.06982e-06
2.0768e-06
2.0715e-06
2.04203e-06
1.95327e-06
1.68109e-06
1.47248e-06
1.32418e-06
1.24639e-06
1.25927e-06
1.42632e-06
4.51675e-07
4.53547e-07
4.57303e-07
4.62971e-07
4.70344e-07
4.79438e-07
4.90254e-07
5.02792e-07
5.17056e-07
5.33048e-07
5.50773e-07
5.70236e-07
5.91441e-07
6.14394e-07
6.391e-07
6.65563e-07
6.93788e-07
7.23775e-07
7.55527e-07
7.89041e-07
8.24314e-07
8.61336e-07
9.00095e-07
9.40571e-07
9.82739e-07
1.02656e-06
1.07199e-06
1.11897e-06
1.16742e-06
1.21722e-06
1.26826e-06
1.32026e-06
1.37313e-06
1.42676e-06
1.48098e-06
1.53557e-06
1.59038e-06
1.64525e-06
1.69678e-06
1.74526e-06
1.791e-06
1.83423e-06
1.87517e-06
1.91392e-06
1.95048e-06
1.98468e-06
2.01605e-06
2.04362e-06
2.06551e-06
2.08188e-06
2.09065e-06
2.08719e-06
2.0598e-06
1.9743e-06
1.70982e-06
1.50188e-06
1.34748e-06
1.26419e-06
1.28064e-06
1.44502e-06
4.35733e-07
4.3756e-07
4.41222e-07
4.46733e-07
4.54115e-07
4.63407e-07
4.74406e-07
4.87137e-07
5.01601e-07
5.17804e-07
5.35751e-07
5.55447e-07
5.76898e-07
6.0011e-07
6.2509e-07
6.51842e-07
6.80373e-07
7.10684e-07
7.42778e-07
7.76654e-07
8.12308e-07
8.49734e-07
8.88918e-07
9.29842e-07
9.72481e-07
1.0168e-06
1.06275e-06
1.11028e-06
1.15931e-06
1.20973e-06
1.26142e-06
1.31411e-06
1.36773e-06
1.42215e-06
1.47718e-06
1.53255e-06
1.58803e-06
1.64321e-06
1.69499e-06
1.74379e-06
1.78998e-06
1.83384e-06
1.87555e-06
1.91523e-06
1.95283e-06
1.98815e-06
2.02067e-06
2.0494e-06
2.07247e-06
2.08994e-06
2.09947e-06
2.0962e-06
2.06863e-06
1.9847e-06
1.73199e-06
1.52924e-06
1.37043e-06
1.28158e-06
1.30308e-06
1.46559e-06
4.20073e-07
4.21869e-07
4.25465e-07
4.30874e-07
4.38114e-07
4.47209e-07
4.58191e-07
4.71105e-07
4.85746e-07
5.02139e-07
5.20286e-07
5.40192e-07
5.61863e-07
5.85306e-07
6.10529e-07
6.37538e-07
6.66339e-07
6.96938e-07
7.29337e-07
7.63535e-07
7.9953e-07
8.37315e-07
8.76877e-07
9.182e-07
9.61257e-07
1.00601e-06
1.05243e-06
1.10044e-06
1.14997e-06
1.20093e-06
1.2532e-06
1.30652e-06
1.36084e-06
1.41607e-06
1.47211e-06
1.5288e-06
1.58608e-06
1.64025e-06
1.6916e-06
1.7404e-06
1.7869e-06
1.8313e-06
1.87374e-06
1.91428e-06
1.95282e-06
1.98909e-06
2.02245e-06
2.05166e-06
2.07596e-06
2.09398e-06
2.10291e-06
2.09689e-06
2.0631e-06
1.97114e-06
1.74233e-06
1.55265e-06
1.39257e-06
1.29849e-06
1.32658e-06
1.48743e-06
4.04466e-07
4.06242e-07
4.09798e-07
4.15145e-07
4.22297e-07
4.31274e-07
4.42102e-07
4.54812e-07
4.69442e-07
4.86039e-07
5.04378e-07
5.24471e-07
5.46332e-07
5.69971e-07
5.95398e-07
6.22624e-07
6.51656e-07
6.825e-07
7.1516e-07
7.49636e-07
7.85926e-07
8.24024e-07
8.63915e-07
9.05584e-07
9.49003e-07
9.94137e-07
1.04094e-06
1.08935e-06
1.13929e-06
1.19066e-06
1.24335e-06
1.29709e-06
1.35182e-06
1.40746e-06
1.46387e-06
1.52091e-06
1.5785e-06
1.63302e-06
1.6848e-06
1.73413e-06
1.78125e-06
1.82637e-06
1.86963e-06
1.91107e-06
1.95058e-06
1.98783e-06
2.02215e-06
2.05218e-06
2.07718e-06
2.09535e-06
2.10294e-06
2.09159e-06
2.04097e-06
1.89441e-06
1.73777e-06
1.57205e-06
1.41329e-06
1.31457e-06
1.35111e-06
1.5106e-06
3.88776e-07
3.90538e-07
3.94069e-07
3.99376e-07
4.06473e-07
4.1538e-07
4.26122e-07
4.38727e-07
4.53233e-07
4.69682e-07
4.88126e-07
5.08334e-07
5.30319e-07
5.54095e-07
5.79673e-07
6.07063e-07
6.36273e-07
6.67312e-07
7.00182e-07
7.34886e-07
7.71421e-07
8.0978e-07
8.4995e-07
8.91913e-07
9.35642e-07
9.81099e-07
1.02824e-06
1.07699e-06
1.12728e-06
1.179e-06
1.23204e-06
1.28611e-06
1.34117e-06
1.39711e-06
1.45379e-06
1.51104e-06
1.56891e-06
1.62379e-06
1.67599e-06
1.72582e-06
1.77353e-06
1.81933e-06
1.86334e-06
1.90559e-06
1.94597e-06
1.98412e-06
2.0193e-06
2.05015e-06
2.07598e-06
2.09494e-06
2.10321e-06
2.09264e-06
2.04397e-06
1.90378e-06
1.7553e-06
1.59445e-06
1.43406e-06
1.33083e-06
1.37645e-06
1.53374e-06
3.72931e-07
3.74681e-07
3.78185e-07
3.83451e-07
3.90492e-07
3.99327e-07
4.09978e-07
4.22473e-07
4.36847e-07
4.53139e-07
4.71396e-07
4.91672e-07
5.13736e-07
5.376e-07
5.63276e-07
5.90777e-07
6.20112e-07
6.51288e-07
6.84312e-07
7.19184e-07
7.55905e-07
7.94467e-07
8.34858e-07
8.77058e-07
9.21039e-07
9.66763e-07
1.01418e-06
1.06322e-06
1.11381e-06
1.16583e-06
1.21916e-06
1.27353e-06
1.32886e-06
1.38506e-06
1.44199e-06
1.49949e-06
1.55755e-06
1.6127e-06
1.66525e-06
1.71552e-06
1.76374e-06
1.81012e-06
1.85479e-06
1.89775e-06
1.93887e-06
1.97776e-06
2.01363e-06
2.045e-06
2.07121e-06
2.09011e-06
2.09751e-06
2.08499e-06
2.03477e-06
1.90646e-06
1.77003e-06
1.61643e-06
1.45594e-06
1.34864e-06
1.40298e-06
1.55623e-06
3.56926e-07
3.5866e-07
3.62132e-07
3.67351e-07
3.74327e-07
3.83079e-07
3.93627e-07
4.05999e-07
4.20225e-07
4.36343e-07
4.54397e-07
4.74438e-07
4.96522e-07
5.20413e-07
5.46125e-07
5.73672e-07
6.03063e-07
6.34309e-07
6.67416e-07
7.02388e-07
7.39224e-07
7.77919e-07
8.18461e-07
8.6083e-07
9.04997e-07
9.50924e-07
9.98557e-07
1.04783e-06
1.09865e-06
1.15091e-06
1.20448e-06
1.25908e-06
1.31462e-06
1.37099e-06
1.42802e-06
1.48584e-06
1.54411e-06
1.59952e-06
1.65239e-06
1.70304e-06
1.7517e-06
1.7986e-06
1.84383e-06
1.88742e-06
1.9292e-06
1.96875e-06
2.00524e-06
2.03708e-06
2.06353e-06
2.08192e-06
2.08682e-06
2.06658e-06
1.99395e-06
1.90017e-06
1.78243e-06
1.63862e-06
1.47998e-06
1.37151e-06
1.43053e-06
1.57726e-06
3.4079e-07
3.42506e-07
3.4594e-07
3.511e-07
3.57998e-07
3.66649e-07
3.77073e-07
3.89297e-07
4.03348e-07
4.19264e-07
4.37084e-07
4.56856e-07
4.78635e-07
5.0248e-07
5.28151e-07
5.5566e-07
5.85021e-07
6.16246e-07
6.49343e-07
6.84318e-07
7.21173e-07
7.59905e-07
8.00504e-07
8.42954e-07
8.87225e-07
9.33279e-07
9.81061e-07
1.0305e-06
1.0815e-06
1.13396e-06
1.18774e-06
1.24254e-06
1.29828e-06
1.35485e-06
1.41209e-06
1.47009e-06
1.52849e-06
1.58408e-06
1.6372e-06
1.68814e-06
1.73717e-06
1.78449e-06
1.83022e-06
1.87435e-06
1.91673e-06
1.95694e-06
1.99412e-06
2.02673e-06
2.05413e-06
2.07373e-06
2.08023e-06
2.06236e-06
1.99414e-06
1.90766e-06
1.79871e-06
1.66308e-06
1.50773e-06
1.39899e-06
1.45911e-06
1.59723e-06
3.24549e-07
3.26242e-07
3.2963e-07
3.3472e-07
3.41524e-07
3.50055e-07
3.60333e-07
3.72381e-07
3.86227e-07
4.01904e-07
4.19449e-07
4.38908e-07
4.60329e-07
4.83769e-07
5.09295e-07
5.36658e-07
5.65873e-07
5.96955e-07
6.29917e-07
6.64768e-07
7.01514e-07
7.40156e-07
7.80689e-07
8.231e-07
8.67363e-07
9.1344e-07
9.61277e-07
1.0108e-06
1.06191e-06
1.11448e-06
1.16839e-06
1.22333e-06
1.27916e-06
1.33577e-06
1.39332e-06
1.45154e-06
1.51008e-06
1.56584e-06
1.61916e-06
1.67036e-06
1.7197e-06
1.76737e-06
1.81351e-06
1.85809e-06
1.90096e-06
1.9417e-06
1.97945e-06
2.0127e-06
2.04091e-06
2.06158e-06
2.0697e-06
2.05469e-06
1.99252e-06
1.91473e-06
1.81647e-06
1.69172e-06
1.54247e-06
1.43117e-06
1.48799e-06
1.61644e-06
3.08248e-07
3.09911e-07
3.1324e-07
3.18242e-07
3.24926e-07
3.33307e-07
3.43403e-07
3.55236e-07
3.68832e-07
3.84223e-07
4.01444e-07
4.20536e-07
4.41545e-07
4.64524e-07
4.8953e-07
5.16631e-07
5.45571e-07
5.76366e-07
6.0903e-07
6.43578e-07
6.80021e-07
7.18373e-07
7.58646e-07
8.00836e-07
8.44924e-07
8.90876e-07
9.38639e-07
9.88143e-07
1.03929e-06
1.09195e-06
1.14597e-06
1.20103e-06
1.25699e-06
1.31376e-06
1.37146e-06
1.4298e-06
1.48843e-06
1.54431e-06
1.59779e-06
1.64919e-06
1.69878e-06
1.74676e-06
1.79325e-06
1.83823e-06
1.88153e-06
1.92273e-06
1.96101e-06
1.99485e-06
2.02366e-06
2.04524e-06
2.055e-06
2.04337e-06
1.98904e-06
1.92185e-06
1.83688e-06
1.72679e-06
1.58756e-06
1.46823e-06
1.51662e-06
1.63586e-06
2.91968e-07
2.93594e-07
2.96848e-07
3.01737e-07
3.0827e-07
3.16461e-07
3.26327e-07
3.37891e-07
3.51178e-07
3.66217e-07
3.83043e-07
4.01693e-07
4.2221e-07
4.44642e-07
4.69042e-07
4.95469e-07
5.23989e-07
5.5434e-07
5.86532e-07
6.20579e-07
6.56489e-07
6.94252e-07
7.34031e-07
7.75794e-07
8.19508e-07
8.65133e-07
9.12624e-07
9.61924e-07
1.01297e-06
1.06567e-06
1.11969e-06
1.17468e-06
1.23054e-06
1.28749e-06
1.34533e-06
1.40379e-06
1.46255e-06
1.51857e-06
1.57223e-06
1.62385e-06
1.67372e-06
1.72202e-06
1.76886e-06
1.81425e-06
1.85802e-06
1.89979e-06
1.93882e-06
1.97384e-06
2.00265e-06
2.02494e-06
2.03645e-06
2.02867e-06
1.9832e-06
1.92752e-06
1.8575e-06
1.76576e-06
1.64278e-06
1.51738e-06
1.54834e-06
1.65772e-06
2.75814e-07
2.77393e-07
2.80551e-07
2.85297e-07
2.91639e-07
2.99592e-07
3.09173e-07
3.20403e-07
3.33308e-07
3.47916e-07
3.64261e-07
3.82379e-07
4.0231e-07
4.24097e-07
4.47789e-07
4.73438e-07
5.01101e-07
5.30841e-07
5.62385e-07
5.95743e-07
6.31091e-07
6.68421e-07
7.07724e-07
7.48986e-07
7.92185e-07
8.3729e-07
8.8426e-07
9.33039e-07
9.83559e-07
1.03573e-06
1.08948e-06
1.14422e-06
1.19986e-06
1.25662e-06
1.31431e-06
1.37269e-06
1.43144e-06
1.48755e-06
1.54141e-06
1.59333e-06
1.64356e-06
1.69231e-06
1.73965e-06
1.78559e-06
1.82994e-06
1.87231e-06
1.91198e-06
1.94772e-06
1.9775e-06
2.00112e-06
2.01457e-06
2.01043e-06
1.97346e-06
1.92814e-06
1.87156e-06
1.79849e-06
1.69992e-06
1.58543e-06
1.58975e-06
1.68731e-06
2.59923e-07
2.61443e-07
2.64484e-07
2.69054e-07
2.75161e-07
2.82821e-07
2.92051e-07
3.02874e-07
3.15315e-07
3.29404e-07
3.45173e-07
3.62659e-07
3.81901e-07
4.0294e-07
4.25821e-07
4.50589e-07
4.77292e-07
5.05977e-07
5.36691e-07
5.69324e-07
6.03893e-07
6.40408e-07
6.78873e-07
7.19281e-07
7.61616e-07
8.05854e-07
8.51958e-07
8.99879e-07
9.49552e-07
1.00089e-06
1.05384e-06
1.10777e-06
1.16296e-06
1.21928e-06
1.27657e-06
1.33465e-06
1.39331e-06
1.44959e-06
1.50377e-06
1.55611e-06
1.60683e-06
1.65614e-06
1.70414e-06
1.75083e-06
1.79605e-06
1.83941e-06
1.8802e-06
1.91718e-06
1.94836e-06
1.97493e-06
1.99168e-06
1.99237e-06
1.96595e-06
1.92947e-06
1.88347e-06
1.8268e-06
1.75711e-06
1.68019e-06
1.66159e-06
1.73019e-06
2.44341e-07
2.45789e-07
2.48686e-07
2.53039e-07
2.58859e-07
2.6616e-07
2.74961e-07
2.85285e-07
2.97159e-07
3.10615e-07
3.25687e-07
3.42411e-07
3.60831e-07
3.80988e-07
4.02931e-07
4.26709e-07
4.52373e-07
4.79977e-07
5.09482e-07
5.40903e-07
5.7425e-07
6.09528e-07
6.46738e-07
6.85874e-07
7.2692e-07
7.69856e-07
8.14648e-07
8.61255e-07
9.09619e-07
9.59673e-07
1.01139e-06
1.06413e-06
1.11811e-06
1.1732e-06
1.22921e-06
1.28592e-06
1.34305e-06
1.40024e-06
1.45504e-06
1.50783e-06
1.55894e-06
1.60866e-06
1.65721e-06
1.70469e-06
1.75109e-06
1.7962e-06
1.83958e-06
1.8804e-06
1.91725e-06
1.94788e-06
1.9743e-06
1.98787e-06
1.98273e-06
1.95282e-06
1.91703e-06
1.87749e-06
1.83537e-06
1.79559e-06
1.76461e-06
1.77475e-06
2.29957e-07
2.31424e-07
2.34361e-07
2.38776e-07
2.44681e-07
2.52096e-07
2.61043e-07
2.71551e-07
2.8365e-07
2.9738e-07
3.1278e-07
3.29896e-07
3.48777e-07
3.69474e-07
3.92044e-07
4.16544e-07
4.43035e-07
4.71528e-07
5.02042e-07
5.34592e-07
5.69188e-07
6.05835e-07
6.44532e-07
6.8527e-07
7.28031e-07
7.72786e-07
8.19496e-07
8.68102e-07
9.18529e-07
9.70675e-07
1.02447e-06
1.07967e-06
1.1361e-06
1.19358e-06
1.2519e-06
1.31077e-06
1.36987e-06
1.42622e-06
1.4803e-06
1.53255e-06
1.58335e-06
1.63303e-06
1.68182e-06
1.72979e-06
1.77686e-06
1.82263e-06
1.86632e-06
1.90659e-06
1.94133e-06
1.97781e-06
2.00154e-06
2.00134e-06
1.96225e-06
1.91898e-06
1.8738e-06
1.82977e-06
1.78952e-06
1.75745e-06
1.79575e-06
1.88377e-06
2.16894e-07
2.18388e-07
2.2138e-07
2.2588e-07
2.31904e-07
2.39474e-07
2.48618e-07
2.59369e-07
2.71767e-07
2.85853e-07
3.01679e-07
3.19296e-07
3.38762e-07
3.60138e-07
3.83488e-07
4.08881e-07
4.36377e-07
4.65999e-07
4.97764e-07
5.31684e-07
5.67767e-07
6.06015e-07
6.46422e-07
6.88977e-07
7.33657e-07
7.80429e-07
8.29243e-07
8.80031e-07
9.327e-07
9.87127e-07
1.04321e-06
1.10073e-06
1.15943e-06
1.21908e-06
1.27932e-06
1.33973e-06
1.39702e-06
1.45177e-06
1.50447e-06
1.55559e-06
1.60551e-06
1.6545e-06
1.70269e-06
1.74997e-06
1.79592e-06
1.83969e-06
1.87984e-06
1.91431e-06
1.94935e-06
1.99045e-06
2.00778e-06
1.97801e-06
1.93854e-06
1.89484e-06
1.85278e-06
1.81863e-06
1.79932e-06
1.80683e-06
1.87022e-06
1.95667e-06
2.04955e-07
2.06465e-07
2.09492e-07
2.14046e-07
2.20148e-07
2.27822e-07
2.37102e-07
2.48026e-07
2.60641e-07
2.74996e-07
2.9115e-07
3.09163e-07
3.29103e-07
3.5104e-07
3.75047e-07
4.01246e-07
4.29659e-07
4.60303e-07
4.9319e-07
5.28328e-07
5.65718e-07
6.05356e-07
6.47232e-07
6.9133e-07
7.37623e-07
7.86072e-07
8.36625e-07
8.89205e-07
9.4371e-07
1e-06
1.05796e-06
1.1174e-06
1.17804e-06
1.23954e-06
1.30143e-06
1.35971e-06
1.41505e-06
1.46805e-06
1.51926e-06
1.56916e-06
1.61814e-06
1.66647e-06
1.7142e-06
1.76107e-06
1.80628e-06
1.84822e-06
1.88389e-06
1.91878e-06
1.95914e-06
2.01303e-06
2.03289e-06
1.98741e-06
1.93694e-06
1.88644e-06
1.84225e-06
1.81282e-06
1.80976e-06
1.85233e-06
1.94633e-06
2.04514e-06
1.94143e-07
1.95658e-07
1.98694e-07
2.03265e-07
2.09393e-07
2.17108e-07
2.26447e-07
2.37456e-07
2.50188e-07
2.64701e-07
2.81062e-07
2.9934e-07
3.19614e-07
3.41965e-07
3.66579e-07
3.93483e-07
4.22696e-07
4.54231e-07
4.88091e-07
5.24274e-07
5.6277e-07
6.03566e-07
6.46644e-07
6.91981e-07
7.39548e-07
7.89304e-07
8.41194e-07
8.95139e-07
9.51033e-07
1.00873e-06
1.06811e-06
1.12906e-06
1.19134e-06
1.25478e-06
1.31432e-06
1.37057e-06
1.42411e-06
1.47552e-06
1.52534e-06
1.57405e-06
1.62203e-06
1.66955e-06
1.71663e-06
1.76295e-06
1.80761e-06
1.84871e-06
1.88265e-06
1.92036e-06
1.96859e-06
2.03568e-06
2.06013e-06
2.00454e-06
1.94375e-06
1.88246e-06
1.82872e-06
1.79526e-06
1.80119e-06
1.87673e-06
2.01244e-06
2.14875e-06
1.84479e-07
1.85987e-07
1.89011e-07
1.93565e-07
1.99673e-07
2.07366e-07
2.16689e-07
2.27695e-07
2.40446e-07
2.5501e-07
2.71458e-07
2.89869e-07
3.10331e-07
3.33104e-07
3.58225e-07
3.85725e-07
4.15628e-07
4.47939e-07
4.82651e-07
5.19733e-07
5.59156e-07
6.00889e-07
6.44904e-07
6.9117e-07
7.39655e-07
7.90319e-07
8.4311e-07
8.97953e-07
9.5474e-07
1.01331e-06
1.07347e-06
1.13509e-06
1.19768e-06
1.26057e-06
1.31907e-06
1.37407e-06
1.42633e-06
1.47647e-06
1.52506e-06
1.57258e-06
1.61941e-06
1.66583e-06
1.71193e-06
1.75741e-06
1.8014e-06
1.84205e-06
1.87628e-06
1.91995e-06
1.98028e-06
2.06712e-06
2.0993e-06
2.032e-06
1.95657e-06
1.87529e-06
1.79804e-06
1.74286e-06
1.73941e-06
1.83892e-06
2.04143e-06
2.26421e-06
1.75974e-07
1.77471e-07
1.80471e-07
1.84988e-07
1.91042e-07
1.98663e-07
2.07895e-07
2.18804e-07
2.31493e-07
2.46029e-07
2.6248e-07
2.80906e-07
3.01634e-07
3.24716e-07
3.50214e-07
3.78189e-07
4.08691e-07
4.4174e-07
4.77302e-07
5.15247e-07
5.555e-07
5.98016e-07
6.42758e-07
6.89693e-07
7.38785e-07
7.89996e-07
8.43294e-07
8.98639e-07
9.55972e-07
1.01518e-06
1.07618e-06
1.13898e-06
1.20346e-06
1.26355e-06
1.32e-06
1.37347e-06
1.42447e-06
1.47346e-06
1.52086e-06
1.56704e-06
1.61233e-06
1.65696e-06
1.70103e-06
1.74429e-06
1.78559e-06
1.82185e-06
1.86364e-06
1.91826e-06
1.99458e-06
2.10459e-06
2.14635e-06
2.07556e-06
1.9808e-06
1.86393e-06
1.73869e-06
1.62699e-06
1.56396e-06
1.62194e-06
1.85959e-06
2.23235e-06
1.68589e-07
1.70079e-07
1.73063e-07
1.77551e-07
1.83555e-07
1.91087e-07
2.00149e-07
2.10754e-07
2.23312e-07
2.37818e-07
2.54337e-07
2.7296e-07
2.93796e-07
3.16965e-07
3.42592e-07
3.70812e-07
4.01763e-07
4.3559e-07
4.7245e-07
5.1135e-07
5.52359e-07
5.95501e-07
6.4077e-07
6.88133e-07
7.37532e-07
7.88869e-07
8.42149e-07
8.97386e-07
9.54637e-07
1.01367e-06
1.07485e-06
1.13698e-06
1.20035e-06
1.25952e-06
1.31548e-06
1.36874e-06
1.41947e-06
1.46796e-06
1.51448e-06
1.55931e-06
1.60266e-06
1.6447e-06
1.68568e-06
1.72621e-06
1.76631e-06
1.80336e-06
1.85098e-06
1.91616e-06
2.00853e-06
2.16238e-06
2.20445e-06
2.15157e-06
2.02554e-06
1.848e-06
1.63815e-06
1.41006e-06
1.1695e-06
9.10755e-07
6.21883e-07
3.29869e-07
1.62228e-07
1.63716e-07
1.66703e-07
1.7121e-07
1.77269e-07
1.84923e-07
1.9423e-07
2.05262e-07
2.18108e-07
2.32864e-07
2.49636e-07
2.68543e-07
2.89715e-07
3.13295e-07
3.39437e-07
3.68305e-07
4.00069e-07
4.34892e-07
4.71918e-07
5.11183e-07
5.52697e-07
5.96444e-07
6.42383e-07
6.90438e-07
7.40502e-07
7.92423e-07
8.46119e-07
9.01462e-07
9.58272e-07
1.01631e-06
1.07497e-06
1.13395e-06
1.19277e-06
1.25086e-06
1.30764e-06
1.36245e-06
1.41386e-06
1.4623e-06
1.50814e-06
1.55155e-06
1.59245e-06
1.63047e-06
1.66474e-06
1.69821e-06
1.73482e-06
1.77924e-06
1.83731e-06
1.91607e-06
2.02471e-06
2.17984e-06
2.21236e-06
2.14614e-06
2.00682e-06
1.819e-06
1.60382e-06
1.37633e-06
1.14267e-06
8.96586e-07
6.22673e-07
3.4007e-07
1.58081e-07
1.59574e-07
1.62572e-07
1.67098e-07
1.73189e-07
1.80893e-07
1.90271e-07
2.01399e-07
2.14363e-07
2.29266e-07
2.46223e-07
2.65365e-07
2.86836e-07
3.10797e-07
3.37428e-07
3.66935e-07
3.99554e-07
4.34534e-07
4.71888e-07
5.11622e-07
5.53727e-07
5.98171e-07
6.44892e-07
6.93797e-07
7.4475e-07
7.97588e-07
8.52206e-07
9.08439e-07
9.66061e-07
1.02477e-06
1.08425e-06
1.1439e-06
1.20326e-06
1.26179e-06
1.31879e-06
1.37327e-06
1.42416e-06
1.47237e-06
1.51797e-06
1.56105e-06
1.60145e-06
1.63867e-06
1.67231e-06
1.70632e-06
1.74537e-06
1.79522e-06
1.86287e-06
1.95605e-06
2.0796e-06
2.22077e-06
2.23004e-06
2.14265e-06
1.98789e-06
1.79079e-06
1.57181e-06
1.34547e-06
1.11802e-06
8.84032e-07
6.24501e-07
3.50055e-07
1.54897e-07
1.56392e-07
1.59396e-07
1.63932e-07
1.70041e-07
1.77772e-07
1.87191e-07
1.98377e-07
2.11425e-07
2.26442e-07
2.43553e-07
2.62895e-07
2.84621e-07
3.08898e-07
3.35901e-07
3.65815e-07
3.9883e-07
4.34215e-07
4.72037e-07
5.12324e-07
5.55077e-07
6.0026e-07
6.47808e-07
6.97616e-07
7.49536e-07
8.03367e-07
8.5903e-07
9.16345e-07
9.75058e-07
1.03484e-06
1.09533e-06
1.15594e-06
1.21618e-06
1.27551e-06
1.33328e-06
1.38675e-06
1.43678e-06
1.48417e-06
1.52967e-06
1.57254e-06
1.61254e-06
1.64896e-06
1.68238e-06
1.71716e-06
1.75869e-06
1.81414e-06
1.89391e-06
2.0144e-06
2.20376e-06
2.27597e-06
2.24656e-06
2.13597e-06
1.96681e-06
1.76148e-06
1.53945e-06
1.31483e-06
1.09383e-06
8.70711e-07
6.24838e-07
3.59698e-07
1.52377e-07
1.53874e-07
1.56883e-07
1.61428e-07
1.6755e-07
1.75305e-07
1.8476e-07
1.95999e-07
2.09124e-07
2.24251e-07
2.41514e-07
2.61065e-07
2.83073e-07
3.07724e-07
3.35218e-07
3.65759e-07
3.98817e-07
4.34441e-07
4.72658e-07
5.13473e-07
5.56867e-07
6.02793e-07
6.51172e-07
7.01886e-07
7.5477e-07
8.09606e-07
8.66331e-07
9.24748e-07
9.84576e-07
1.04544e-06
1.10694e-06
1.16845e-06
1.22939e-06
1.28911e-06
1.34679e-06
1.39991e-06
1.44947e-06
1.49642e-06
1.5416e-06
1.58431e-06
1.624e-06
1.65966e-06
1.69284e-06
1.72808e-06
1.77088e-06
1.82833e-06
1.91029e-06
2.03216e-06
2.22172e-06
2.28479e-06
2.24284e-06
2.12026e-06
1.94195e-06
1.7311e-06
1.50719e-06
1.28422e-06
1.06874e-06
8.56185e-07
6.25287e-07
3.68817e-07
1.50418e-07
1.51918e-07
1.54933e-07
1.59489e-07
1.65628e-07
1.73409e-07
1.82902e-07
1.94197e-07
2.074e-07
2.22635e-07
2.40046e-07
2.59796e-07
2.82074e-07
3.07096e-07
3.35116e-07
3.65719e-07
3.99024e-07
4.35019e-07
4.73722e-07
5.15128e-07
5.5921e-07
6.05911e-07
6.55143e-07
7.06777e-07
7.60633e-07
8.16476e-07
8.74269e-07
9.33798e-07
9.94762e-07
1.05675e-06
1.11931e-06
1.1818e-06
1.24354e-06
1.30368e-06
1.36099e-06
1.41352e-06
1.46244e-06
1.50871e-06
1.55312e-06
1.59621e-06
1.63592e-06
1.67108e-06
1.70451e-06
1.74111e-06
1.78682e-06
1.84894e-06
1.93668e-06
2.06215e-06
2.24647e-06
2.29616e-06
2.23912e-06
2.10348e-06
1.91561e-06
1.69908e-06
1.47343e-06
1.25253e-06
1.04272e-06
8.4002e-07
6.24001e-07
3.77143e-07
1.48959e-07
1.50464e-07
1.53487e-07
1.58059e-07
1.64222e-07
1.72036e-07
1.81577e-07
1.92938e-07
2.0623e-07
2.21582e-07
2.39143e-07
2.59085e-07
2.81597e-07
3.06886e-07
3.35164e-07
3.66045e-07
3.99701e-07
4.36153e-07
4.75411e-07
5.17466e-07
5.62282e-07
6.09797e-07
6.59911e-07
7.12483e-07
7.67323e-07
8.24176e-07
8.83038e-07
9.43687e-07
1.0058e-06
1.06893e-06
1.13259e-06
1.19618e-06
1.25901e-06
1.32036e-06
1.37623e-06
1.42773e-06
1.47593e-06
1.52171e-06
1.56583e-06
1.60885e-06
1.64849e-06
1.68305e-06
1.71694e-06
1.75554e-06
1.80569e-06
1.87634e-06
1.97833e-06
2.12018e-06
2.2872e-06
2.31231e-06
2.23408e-06
2.08319e-06
1.88594e-06
1.66489e-06
1.43845e-06
1.21967e-06
1.01497e-06
8.21704e-07
6.20768e-07
3.84175e-07
1.47949e-07
1.49461e-07
1.52498e-07
1.57092e-07
1.63288e-07
1.71147e-07
1.80751e-07
1.92195e-07
2.05597e-07
2.21093e-07
2.38842e-07
2.59029e-07
2.81868e-07
3.07617e-07
3.35968e-07
3.67051e-07
4.0101e-07
4.37991e-07
4.77868e-07
5.20631e-07
5.66237e-07
6.14612e-07
6.65646e-07
7.19188e-07
7.7503e-07
8.32899e-07
8.92837e-07
9.54608e-07
1.01787e-06
1.08214e-06
1.14685e-06
1.21138e-06
1.27481e-06
1.33578e-06
1.39097e-06
1.44186e-06
1.48958e-06
1.53501e-06
1.57882e-06
1.62151e-06
1.66066e-06
1.69524e-06
1.72987e-06
1.7704e-06
1.82498e-06
1.90606e-06
2.0347e-06
2.24931e-06
2.34037e-06
2.32411e-06
2.2217e-06
2.0563e-06
1.85081e-06
1.62615e-06
1.39971e-06
1.18389e-06
9.84881e-07
8.00615e-07
6.1363e-07
3.89498e-07
1.47347e-07
1.48867e-07
1.51923e-07
1.56546e-07
1.62784e-07
1.70702e-07
1.80384e-07
1.91932e-07
2.05467e-07
2.21133e-07
2.39092e-07
2.59528e-07
2.82644e-07
3.08663e-07
3.37302e-07
3.6873e-07
4.03117e-07
4.40639e-07
4.81192e-07
5.24733e-07
5.71199e-07
6.20499e-07
6.72508e-07
7.2706e-07
7.83933e-07
8.42835e-07
9.03858e-07
9.66764e-07
1.0312e-06
1.09665e-06
1.16254e-06
1.2284e-06
1.2936e-06
1.35247e-06
1.40636e-06
1.45648e-06
1.50381e-06
1.54904e-06
1.59254e-06
1.63429e-06
1.67379e-06
1.70878e-06
1.74424e-06
1.78612e-06
1.84226e-06
1.92425e-06
2.05174e-06
2.26305e-06
2.34207e-06
2.311e-06
2.19495e-06
2.01947e-06
1.80839e-06
1.58234e-06
1.35756e-06
1.14541e-06
9.51875e-07
7.76134e-07
6.02963e-07
3.92645e-07
1.47113e-07
1.48645e-07
1.51724e-07
1.56385e-07
1.62676e-07
1.70666e-07
1.80444e-07
1.92119e-07
2.0582e-07
2.217e-07
2.39936e-07
2.60726e-07
2.84287e-07
3.10456e-07
3.39367e-07
3.71162e-07
4.05994e-07
4.44023e-07
4.85411e-07
5.29848e-07
5.77274e-07
6.27585e-07
6.80642e-07
7.36261e-07
7.94201e-07
8.54151e-07
9.16267e-07
9.80307e-07
1.04589e-06
1.11247e-06
1.17931e-06
1.24577e-06
1.31034e-06
1.36833e-06
1.42155e-06
1.47137e-06
1.51875e-06
1.56434e-06
1.60837e-06
1.65056e-06
1.68959e-06
1.72497e-06
1.76209e-06
1.80715e-06
1.86787e-06
1.95462e-06
2.08303e-06
2.28389e-06
2.3443e-06
2.29355e-06
2.16112e-06
1.97444e-06
1.7577e-06
1.53081e-06
1.30864e-06
1.10132e-06
9.14296e-07
7.47285e-07
5.87455e-07
3.92682e-07
1.47216e-07
1.48762e-07
1.51871e-07
1.56576e-07
1.6293e-07
1.71007e-07
1.80899e-07
1.9272e-07
2.0661e-07
2.22734e-07
2.41284e-07
2.62493e-07
2.86292e-07
3.12789e-07
3.4211e-07
3.74396e-07
4.09802e-07
4.48502e-07
4.90696e-07
5.361e-07
5.84581e-07
6.36001e-07
6.90192e-07
7.46943e-07
8.05994e-07
8.67011e-07
9.30232e-07
9.95426e-07
1.06223e-06
1.13009e-06
1.19834e-06
1.26696e-06
1.32857e-06
1.38485e-06
1.43724e-06
1.48688e-06
1.53456e-06
1.5808e-06
1.62584e-06
1.66972e-06
1.70731e-06
1.74333e-06
1.78332e-06
1.83413e-06
1.9045e-06
2.00559e-06
2.14859e-06
2.3227e-06
2.34907e-06
2.2692e-06
2.11596e-06
1.91702e-06
1.69549e-06
1.46934e-06
1.25159e-06
1.0507e-06
8.71039e-07
7.1289e-07
5.66192e-07
3.8835e-07
1.47629e-07
1.49192e-07
1.52334e-07
1.57093e-07
1.63523e-07
1.71701e-07
1.81724e-07
1.93715e-07
2.07817e-07
2.24202e-07
2.43065e-07
2.64622e-07
2.88811e-07
3.15757e-07
3.45592e-07
3.78459e-07
4.14516e-07
4.53929e-07
4.96867e-07
5.43495e-07
5.93203e-07
6.45863e-07
7.01291e-07
7.59252e-07
8.19457e-07
8.81549e-07
9.45867e-07
1.0122e-06
1.08025e-06
1.14904e-06
1.21773e-06
1.28515e-06
1.34546e-06
1.40095e-06
1.45315e-06
1.50312e-06
1.55144e-06
1.59837e-06
1.64381e-06
1.68731e-06
1.72536e-06
1.76335e-06
1.80767e-06
1.86652e-06
1.95138e-06
2.08101e-06
2.29573e-06
2.37675e-06
2.34624e-06
2.23012e-06
2.05437e-06
1.84327e-06
1.61758e-06
1.39337e-06
1.18166e-06
9.88913e-07
8.17911e-07
6.68869e-07
5.348e-07
3.75619e-07
1.48328e-07
1.49911e-07
1.53094e-07
1.57914e-07
1.64432e-07
1.72726e-07
1.82904e-07
1.95093e-07
2.0945e-07
2.2616e-07
2.45437e-07
2.67342e-07
2.91971e-07
3.19436e-07
3.4987e-07
3.83421e-07
4.20256e-07
4.60553e-07
5.04506e-07
5.52312e-07
6.03301e-07
6.57302e-07
7.14075e-07
7.73325e-07
8.3472e-07
8.9788e-07
9.6328e-07
1.0308e-06
1.10026e-06
1.17087e-06
1.24142e-06
1.30455e-06
1.36267e-06
1.41743e-06
1.46991e-06
1.52075e-06
1.57026e-06
1.61835e-06
1.66452e-06
1.70731e-06
1.7459e-06
1.78645e-06
1.83624e-06
1.9046e-06
2.00354e-06
2.14638e-06
2.33356e-06
2.37586e-06
2.30953e-06
2.16533e-06
1.97078e-06
1.74979e-06
1.52204e-06
1.30189e-06
1.09831e-06
9.15564e-07
7.54561e-07
6.14701e-07
4.90776e-07
3.48707e-07
1.49303e-07
1.50909e-07
1.54138e-07
1.59029e-07
1.65646e-07
1.74074e-07
1.84425e-07
1.96839e-07
2.11481e-07
2.28549e-07
2.48231e-07
2.70607e-07
2.95774e-07
3.23849e-07
3.54969e-07
3.89293e-07
4.27001e-07
4.68286e-07
5.13359e-07
5.62435e-07
6.14882e-07
6.70428e-07
7.28721e-07
7.89369e-07
8.51965e-07
9.16113e-07
9.82404e-07
1.05087e-06
1.12171e-06
1.19509e-06
1.26058e-06
1.32119e-06
1.37872e-06
1.4341e-06
1.48791e-06
1.54047e-06
1.59179e-06
1.64164e-06
1.68965e-06
1.73052e-06
1.76981e-06
1.8141e-06
1.87203e-06
1.95583e-06
2.0846e-06
2.2916e-06
2.38529e-06
2.36449e-06
2.25198e-06