/*--------------------------------*- C++ -*----------------------------------*\
| =========                 |                                                 |
| \\      /  F ield         | OpenFOAM: The Open Source CFD Toolbox           |
|  \\    /   O peration     | Version:  v1906                                 |
|   \\  /    A nd           | Web:      www.OpenFOAM.com                      |
|    \\/     M anipulation  |                                                 |
\*---------------------------------------------------------------------------*/
FoamFile
{
    version     2.0;
    format      ascii;
    class       volScalarField;
    location    "2.83";
    object      k;
}
// * * * * * * * * * * * * * * * * * * * * * * * * * * * * * * * * * * * * * //

dimensions      [0 2 -2 0 0 0 0];


internalField   nonuniform List<scalar> 
26400
(
11.8016
11.8011
11.8
11.7984
11.7962
11.7935
11.7901
11.7862
11.7816
11.7763
11.7704
11.7636
11.7561
11.7477
11.7385
11.7282
11.717
11.7046
11.6911
11.6763
11.6602
11.6427
11.6237
11.6031
11.5808
11.5568
11.5308
11.5029
11.4728
11.4405
11.4058
11.3687
11.3289
11.2864
11.2411
11.1929
11.1417
11.0874
11.03
10.9696
10.9061
10.8399
10.7711
10.7003
10.6282
10.5563
10.4864
10.4212
10.3651
10.3244
10.3078
10.329
10.4047
10.5542
10.7915
11.1088
11.4542
11.6935
11.5686
9.47166
11.8671
11.8667
11.8658
11.8644
11.8625
11.8602
11.8573
11.854
11.85
11.8454
11.8402
11.8343
11.8277
11.8202
11.8119
11.8027
11.7925
11.7813
11.7689
11.7552
11.7403
11.724
11.7062
11.6867
11.6656
11.6427
11.6178
11.5909
11.5619
11.5305
11.4967
11.4602
11.4211
11.3791
11.334
11.2858
11.2342
11.1792
11.1206
11.0582
10.9922
10.9225
10.8494
10.7733
10.6947
10.6146
10.5347
10.4575
10.387
10.3293
10.2942
10.2952
10.3521
10.4902
10.7331
11.0827
11.4811
11.794
11.7146
9.51151
11.9111
11.9107
11.9099
11.9087
11.9071
11.905
11.9024
11.8993
11.8957
11.8915
11.8867
11.8812
11.8751
11.8681
11.8603
11.8515
11.8418
11.831
11.819
11.8058
11.7913
11.7753
11.7579
11.7387
11.7178
11.6951
11.6703
11.6434
11.6143
11.5828
11.5487
11.512
11.4724
11.4298
11.3841
11.335
11.2825
11.2263
11.1663
11.1025
11.0348
10.9631
10.8876
10.8086
10.7266
10.6424
10.5576
10.4744
10.3968
10.3303
10.2842
10.2722
10.315
10.4399
10.6761
11.0345
11.4688
11.8285
11.7729
9.52795
11.9602
11.9599
11.9592
11.9583
11.9569
11.9552
11.953
11.9504
11.9474
11.9438
11.9397
11.9349
11.9295
11.9233
11.9164
11.9085
11.8997
11.8898
11.8788
11.8666
11.8531
11.8381
11.8216
11.8034
11.7835
11.7616
11.7378
11.7118
11.6835
11.6527
11.6194
11.5834
11.5445
11.5024
11.4569
11.408
11.3554
11.2988
11.2381
11.1732
11.1038
11.0299
10.9514
10.8685
10.7815
10.691
10.5982
10.5051
10.4151
10.3336
10.2696
10.2369
10.2572
10.3619
10.5889
10.9631
11.4445
11.86
11.883
9.53459
12.0068
12.0065
12.006
12.0052
12.0042
12.0028
12.0011
11.999
11.9966
11.9936
11.9901
11.9861
11.9814
11.976
11.9699
11.9629
11.9549
11.9459
11.9358
11.9244
11.9117
11.8976
11.8819
11.8645
11.8453
11.8242
11.801
11.7755
11.7477
11.7174
11.6844
11.6487
11.6099
11.5678
11.5223
11.4731
11.4199
11.3626
11.3009
11.2346
11.1635
11.0874
11.0061
10.9198
10.8285
10.7326
10.6331
10.5317
10.4312
10.3364
10.2556
10.2021
10.1975
10.2747
10.478
10.8484
11.3641
11.8617
11.9407
9.531
12.0528
12.0526
12.0523
12.0518
12.0511
12.0502
12.049
12.0475
12.0457
12.0435
12.0408
12.0376
12.0338
12.0294
12.0242
12.0182
12.0113
12.0034
11.9943
11.9841
11.9725
11.9594
11.9448
11.9285
11.9103
11.8902
11.868
11.8434
11.8165
11.7869
11.7547
11.7198
11.6816
11.6401
11.595
11.546
11.4929
11.4354
11.3733
11.3062
11.2339
11.156
11.0724
10.9829
10.8874
10.786
10.6794
10.5688
10.4563
10.3462
10.2455
10.1679
10.1336
10.1775
10.3507
10.7097
11.2565
11.8307
11.9776
9.5012
12.0974
12.0974
12.0973
12.0971
12.0968
12.0963
12.0957
12.0949
12.0939
12.0925
12.0907
12.0885
12.0857
12.0823
12.0783
12.0734
12.0676
12.0609
12.053
12.044
12.0336
12.0217
12.0083
11.9931
11.9761
11.957
11.9358
11.9123
11.8862
11.8574
11.826
11.7918
11.7543
11.7134
11.6686
11.6198
11.5668
11.5091
11.4465
11.3786
11.3052
11.2257
11.1399
11.0475
10.9481
10.8417
10.7285
10.6093
10.4856
10.3607
10.2406
10.1351
10.0652
10.0651
10.1897
10.5097
11.0606
11.71
11.9837
9.4583
12.1407
12.1408
12.1409
12.141
12.1412
12.1413
12.1414
12.1413
12.1411
12.1406
12.1399
12.1387
12.1371
12.135
12.1322
12.1286
12.1242
12.1189
12.1124
12.1048
12.0958
12.0853
12.0733
12.0595
12.0438
12.0261
12.0061
11.9838
11.9588
11.9312
11.9008
11.8676
11.831
11.7908
11.7467
11.6985
11.6458
11.5883
11.5256
11.4574
11.3832
11.3026
11.2151
11.1202
11.0174
10.9065
10.7871
10.6594
10.5242
10.3838
10.2424
10.1092
10.003
9.95471
10.0209
10.2855
10.8189
11.5301
11.9378
9.37754
12.1821
12.1823
12.1826
12.1831
12.1838
12.1845
12.1853
12.1861
12.1869
12.1875
12.1879
12.188
12.1878
12.187
12.1857
12.1836
12.1808
12.177
12.1721
12.1661
12.1587
12.1499
12.1395
12.1273
12.1131
12.0969
12.0784
12.0574
12.0338
12.0074
11.9782
11.9461
11.9105
11.8712
11.8279
11.7803
11.728
11.6708
11.6082
11.5397
11.465
11.3835
11.2945
11.1975
11.0919
10.9769
10.852
10.7167
10.5713
10.4167
10.2557
10.0946
9.94658
9.84101
9.83106
10.0067
10.4704
11.19
11.7103
9.24488
12.2208
12.2211
12.2218
12.2228
12.224
12.2255
12.2271
12.2289
12.2308
12.2327
12.2344
12.2359
12.2372
12.238
12.2384
12.2381
12.237
12.2351
12.2321
12.2279
12.2224
12.2155
12.2069
12.1966
12.1842
12.1698
12.153
12.1337
12.1117
12.0867
12.059
12.0282
11.9939
11.9556
11.9133
11.8665
11.8148
11.758
11.6956
11.6272
11.5521
11.4699
11.3798
11.2812
11.1731
11.0546
10.9248
10.7827
10.6277
10.4595
10.2791
10.0903
9.9016
9.73929
9.64956
9.72122
10.0857
10.7859
11.4178
9.10368
12.2561
12.2566
12.2576
12.259
12.2609
12.2632
12.2659
12.2688
12.272
12.2752
12.2785
12.2817
12.2847
12.2874
12.2897
12.2914
12.2924
12.2925
12.2917
12.2897
12.2865
12.2817
12.2753
12.2671
12.2569
12.2445
12.2298
12.2124
12.1923
12.1691
12.143
12.1138
12.0809
12.044
12.0027
11.9569
11.906
11.8498
11.7877
11.7194
11.6441
11.5613
11.4703
11.3701
11.2598
11.1382
11.0041
10.8561
10.6926
10.5122
10.3144
10.0998
9.87344
9.64886
9.46503
9.40071
9.59573
10.1708
10.8507
8.91613
12.2865
12.2872
12.2885
12.2905
12.2932
12.2964
12.3002
12.3045
12.3091
12.314
12.319
12.3242
12.3292
12.334
12.3385
12.3425
12.3459
12.3485
12.3502
12.3507
12.35
12.3478
12.344
12.3384
12.3308
12.3209
12.3086
12.2936
12.2757
12.2548
12.2307
12.2035
12.1723
12.137
12.0972
12.0526
12.0028
11.9474
11.8859
11.8178
11.7426
11.6595
11.5677
11.4662
11.354
11.2297
11.0918
10.9384
10.7675
10.5765
10.3632
10.1258
9.86445
9.58236
9.31237
9.11408
9.11767
9.50252
10.1587
8.79221
12.3086
12.3096
12.3115
12.3144
12.3181
12.3227
12.3279
12.3337
12.3401
12.3469
12.3541
12.3613
12.3686
12.3758
12.3828
12.3895
12.3956
12.4011
12.4057
12.4093
12.4116
12.4125
12.4117
12.4092
12.4046
12.3978
12.3884
12.3764
12.3614
12.3432
12.3218
12.297
12.2682
12.2351
12.1973
12.1544
12.1061
12.052
11.9915
11.9242
11.8493
11.7661
11.6738
11.5713
11.4575
11.3308
11.1895
11.0314
10.8539
10.6536
10.4268
10.1693
9.87727
9.54982
9.18386
8.83394
8.60812
8.71185
9.26008
8.741
12.3185
12.3197
12.3221
12.3256
12.3302
12.3359
12.3426
12.3502
12.3586
12.3678
12.3775
12.3876
12.3981
12.4085
12.4188
12.4288
12.4384
12.4473
12.4554
12.4625
12.4683
12.4727
12.4757
12.4768
12.476
12.4729
12.4674
12.459
12.4476
12.4329
12.415
12.3935
12.3679
12.3378
12.3028
12.2626
12.2166
12.1646
12.1058
12.0398
11.9659
11.8832
11.791
11.6879
11.5729
11.4442
11.2999
11.1376
10.9541
10.7456
10.5072
10.2325
9.91447
9.54551
9.11883
8.63484
8.1871
7.98569
8.31057
8.86308
12.3201
12.3214
12.324
12.328
12.3331
12.3395
12.347
12.3556
12.3651
12.3755
12.3867
12.3985
12.4111
12.4242
12.4377
12.4513
12.4648
12.4779
12.4906
12.5025
12.5133
12.5227
12.5304
12.5364
12.5403
12.542
12.5411
12.5374
12.5305
12.5203
12.5068
12.4898
12.4685
12.4427
12.4117
12.3753
12.333
12.2842
12.2285
12.1651
12.0934
12.0126
11.9215
11.819
11.7038
11.5741
11.4278
11.2624
11.0743
10.8592
10.6113
10.3227
9.98346
9.58052
9.0991
8.52019
7.87911
7.45297
7.68552
9.22428
12.2962
12.2979
12.3013
12.3063
12.3129
12.3211
12.3307
12.3416
12.3537
12.3669
12.3809
12.3957
12.4109
12.4265
12.4422
12.4581
12.4738
12.4894
12.5046
12.5195
12.534
12.5478
12.5607
12.5721
12.582
12.5898
12.5955
12.5986
12.5987
12.5953
12.5883
12.5776
12.5625
12.5427
12.5176
12.4866
12.4494
12.4058
12.355
12.2964
12.2289
12.1518
12.0638
11.9638
11.8501
11.7212
11.5747
11.4079
11.2173
10.9981
10.7439
10.4458
10.0914
9.66396
9.13546
8.47631
7.67941
7.0904
7.37257
9.75184
12.2369
12.2388
12.2427
12.2486
12.2563
12.2658
12.2771
12.29
12.3044
12.3202
12.3372
12.3553
12.3744
12.3941
12.4144
12.4351
12.4559
12.4766
12.4969
12.5166
12.5354
12.553
12.5693
12.5841
12.5973
12.6087
12.6181
12.6255
12.6308
12.6339
12.6344
12.6317
12.6253
12.6146
12.5991
12.5783
12.5511
12.5165
12.4742
12.4235
12.3635
12.2932
12.2113
12.1165
12.0071
11.8811
11.7363
11.5697
11.3777
11.1552
10.8954
10.5878
10.2173
9.76024
9.18558
8.47012
7.57963
6.87369
7.23321
10.5352
12.1289
12.1311
12.1354
12.1419
12.1504
12.161
12.1735
12.1878
12.2039
12.2216
12.2408
12.2613
12.2829
12.3056
12.3292
12.3535
12.3782
12.4033
12.4285
12.4536
12.4784
12.5027
12.5261
12.5485
12.5695
12.5887
12.6059
12.6207
12.6326
12.6413
12.647
12.6492
12.6478
12.6424
12.6329
12.6191
12.6012
12.5781
12.5487
12.5116
12.4657
12.4094
12.3412
12.2591
12.1607
12.0433
11.9035
11.7372
11.5396
11.3049
11.0255
10.6915
10.289
9.79928
9.19255
8.41687
7.45763
6.70489
7.19462
11.9868
11.9558
11.9581
11.9626
11.9694
11.9785
11.9897
12.003
12.0184
12.0356
12.0546
12.0753
12.0974
12.121
12.1457
12.1716
12.1983
12.2258
12.254
12.2825
12.3112
12.34
12.3686
12.3968
12.4244
12.4512
12.477
12.5015
12.5245
12.5457
12.5648
12.5817
12.5958
12.6067
12.6138
12.6167
12.6147
12.6069
12.5929
12.5719
12.5432
12.5056
12.4578
12.3979
12.3237
12.2325
12.1208
11.9846
11.8192
11.6188
11.3768
11.0852
10.7344
10.3114
9.79312
9.14752
8.3324
7.35998
6.63638
7.18727
13.6268
11.699
11.7013
11.7058
11.7124
11.7212
11.7321
11.745
11.7599
11.7766
11.7951
11.8151
11.8367
11.8596
11.8836
11.9088
11.9349
11.9617
11.9891
12.0169
12.0449
12.073
12.1009
12.1285
12.1554
12.1816
12.2067
12.2305
12.2528
12.2734
12.2921
12.3088
12.323
12.3347
12.3435
12.3493
12.3516
12.3505
12.3452
12.3354
12.3203
12.2989
12.2699
12.2314
12.1808
12.1148
12.0289
11.9176
11.7747
11.5929
11.3641
11.0803
10.7341
10.3153
9.80339
9.16889
8.392
7.50338
6.98691
7.88734
14.1155
11.3315
11.3334
11.3374
11.3433
11.3512
11.361
11.3727
11.3861
11.4013
11.418
11.4361
11.4556
11.4762
11.4979
11.5205
11.5439
11.5678
11.5922
11.6168
11.6415
11.666
11.6901
11.7136
11.7361
11.7574
11.7772
11.7951
11.8107
11.8237
11.8336
11.84
11.8426
11.8406
11.8337
11.821
11.8021
11.7764
11.7433
11.7022
11.6525
11.5937
11.5251
11.446
11.3554
11.252
11.1327
10.992
10.8332
10.658
10.4653
10.2494
10.0024
9.71522
9.37345
8.96446
8.47376
7.83005
7.13505
7.12151
11.7211
10.8929
10.8948
10.8985
10.9041
10.9114
10.9204
10.931
10.9432
10.9569
10.9719
10.988
11.0052
11.0231
11.0418
11.0609
11.0802
11.0996
11.1188
11.1375
11.1554
11.1723
11.1877
11.2012
11.2125
11.2209
11.2261
11.2273
11.224
11.2154
11.2007
11.1792
11.15
11.1118
11.0637
11.0043
10.9323
10.8463
10.7449
10.6263
10.4891
10.3317
10.1526
9.95096
9.7266
9.481
9.21848
8.94848
8.66724
8.37172
8.0605
7.73317
7.39012
7.03287
6.66113
6.27318
5.88176
5.48146
5.28109
5.62144
10.0159
10.3282
10.3294
10.332
10.3358
10.3408
10.3471
10.3544
10.3626
10.3717
10.3815
10.3919
10.4026
10.4134
10.4242
10.4347
10.4447
10.4538
10.4618
10.4685
10.4734
10.4762
10.4765
10.4739
10.4679
10.458
10.4436
10.4241
10.3991
10.3677
10.3293
10.2834
10.2292
10.166
10.0929
10.0092
9.91435
9.80754
9.68817
9.55569
9.40965
9.24975
9.07574
8.8875
8.68485
8.46753
8.23509
7.98687
7.7227
7.4462
7.16064
6.86798
6.56763
6.26413
5.9647
5.6796
5.3978
5.12446
5.02942
5.59035
9.13077
9.70571
9.70649
9.70803
9.71028
9.71318
9.71667
9.72068
9.72509
9.72978
9.73458
9.73933
9.74385
9.74792
9.7513
9.75375
9.75499
9.75476
9.75279
9.74873
9.74226
9.733
9.72053
9.70443
9.68419
9.6593
9.62925
9.59345
9.55135
9.50234
9.44579
9.38125
9.30805
9.22557
9.13321
9.03043
8.91679
8.79184
8.65527
8.50685
8.34658
8.1747
7.99174
7.79861
7.59676
7.38832
7.17622
6.96417
6.75647
6.55303
6.35423
6.16149
5.9781
5.79841
5.61191
5.40542
5.18329
4.94956
4.82082
5.12804
8.19727
9.04588
9.04605
9.04644
9.04705
9.04783
9.04872
9.04962
9.05045
9.05108
9.05136
9.05112
9.05019
9.04836
9.04539
9.04108
9.03522
9.02756
9.01784
9.00577
8.99101
8.97325
8.95214
8.92728
8.89827
8.86465
8.82602
8.78196
8.73206
8.67588
8.61302
8.54315
8.46593
8.38098
8.28804
8.18696
8.07764
7.96011
7.83447
7.70103
7.56024
7.41274
7.25937
7.1011
6.93908
6.77452
6.60871
6.44288
6.27828
6.11621
5.95747
5.80167
5.64699
5.4915
5.33365
5.17352
5.0061
4.83551
4.73976
5.02257
7.53196
8.38159
8.38138
8.381
8.38041
8.37957
8.37843
8.37689
8.37484
8.37217
8.36876
8.36448
8.35917
8.35264
8.34473
8.33528
8.32412
8.31102
8.29575
8.27806
8.25768
8.23432
8.20766
8.1774
8.14321
8.10475
8.06167
8.01365
7.96037
7.90153
7.83687
7.7662
7.68928
7.60586
7.5158
7.41903
7.31553
7.20538
7.08881
6.96615
6.83792
6.70488
6.56801
6.42858
6.28816
6.14866
6.01224
5.88128
5.7581
5.64469
5.54219
5.45011
5.36513
5.28003
5.18348
5.06424
4.92092
4.752
4.62281
4.7542
6.91336
7.74401
7.74349
7.74249
7.74102
7.739
7.73641
7.73316
7.72917
7.72434
7.71856
7.71171
7.7037
7.69442
7.68377
7.67158
7.65769
7.6419
7.62403
7.60389
7.58127
7.55597
7.52775
7.49638
7.46159
7.42311
7.38067
7.33406
7.28308
7.22757
7.16734
7.10234
7.03246
6.9576
6.87774
6.79292
6.70326
6.60901
6.51051
6.40824
6.30279
6.19492
6.08555
5.97579
5.86685
5.76004
5.65669
5.55815
5.46549
5.37933
5.29983
5.22652
5.15736
5.08846
5.01532
4.93032
4.82261
4.68647
4.58037
4.68994
6.41988
7.14706
7.14637
7.145
7.14293
7.14011
7.1365
7.13204
7.12679
7.12067
7.11351
7.10521
7.09568
7.08489
7.07274
7.05911
7.04388
7.02688
7.00798
6.98701
6.96384
6.9383
6.91023
6.87943
6.84572
6.8089
6.76878
6.72522
6.67807
6.62722
6.57253
6.51395
6.45141
6.38483
6.31416
6.2395
6.16096
6.07877
5.99327
5.90491
5.81431
5.72221
5.62952
5.53738
5.44716
5.36056
5.27946
5.2059
5.14186
5.08899
5.04807
5.01827
4.99568
4.97189
4.93435
4.87444
4.78386
4.65536
4.5241
4.52438
5.98267
6.60469
6.60388
6.6023
6.59996
6.5968
6.59277
6.58782
6.58194
6.5751
6.56728
6.55845
6.54849
6.53733
6.52486
6.51103
6.49575
6.47895
6.46055
6.44042
6.4184
6.39435
6.36816
6.33969
6.30882
6.27542
6.2394
6.20064
6.15906
6.11459
6.06717
6.01675
5.96331
5.90684
5.84741
5.7851
5.72007
5.65255
5.58288
5.51153
5.43906
5.36613
5.29353
5.22223
5.15338
5.08826
5.02825
4.9748
4.92932
4.893
4.86641
4.84888
4.83832
4.83064
4.81928
4.78807
4.72369
4.61502
4.48926
4.48312
5.58548
6.11906
6.11821
6.11654
6.11404
6.11067
6.10641
6.10124
6.09516
6.08815
6.0802
6.07125
6.06127
6.0502
6.038
6.0246
6.00994
5.99395
5.97657
5.95771
5.93727
5.91515
5.89124
5.86544
5.83769
5.80792
5.77603
5.74195
5.70561
5.66697
5.626
5.58271
5.53707
5.4891
5.43883
5.38633
5.33175
5.27528
5.2172
5.15789
5.0979
5.03786
4.97861
4.92117
4.86677
4.81689
4.77329
4.7379
4.7128
4.69995
4.70064
4.71381
4.73638
4.7599
4.77123
4.75877
4.70882
4.60711
4.46374
4.34851
5.18238
5.6928
5.69188
5.69014
5.68759
5.68417
5.6799
5.67477
5.66876
5.66186
5.65405
5.64531
5.63562
5.62496
5.61331
5.60063
5.58686
5.57197
5.55588
5.53855
5.51992
5.49991
5.47844
5.45547
5.43095
5.40484
5.3771
5.3477
5.31661
5.2838
5.24925
5.213
5.17505
5.13541
5.09414
5.05131
5.00708
4.96165
4.91531
4.86842
4.82142
4.77494
4.72969
4.68656
4.64658
4.61103
4.58135
4.55909
4.5459
4.54342
4.55292
4.57517
4.6086
4.6489
4.68735
4.70421
4.68023
4.59426
4.45408
4.31465
4.84211
5.3222
5.3213
5.3196
5.3171
5.3138
5.30966
5.30466
5.29879
5.29206
5.28449
5.27607
5.26677
5.25659
5.2455
5.23349
5.22054
5.20663
5.1917
5.17573
5.15866
5.14047
5.12113
5.10061
5.0789
5.05595
5.03173
5.00624
4.97945
4.95136
4.92197
4.8913
4.85938
4.82619
4.79179
4.75628
4.71979
4.68255
4.64479
4.60686
4.56919
4.53233
4.497
4.4641
4.43479
4.41045
4.39276
4.38365
4.38518
4.39915
4.42796
4.47192
4.52908
4.59323
4.65176
4.68737
4.67889
4.60477
4.45331
4.23022
4.50247
5.00434
5.00347
5.00181
4.99936
4.99609
4.992
4.98709
4.98138
4.97485
4.96752
4.9594
4.9505
4.9408
4.93027
4.91891
4.90669
4.89361
4.87964
4.86478
4.84901
4.83233
4.81475
4.79628
4.77689
4.75658
4.7353
4.71305
4.68986
4.6657
4.64061
4.61461
4.58775
4.56007
4.53164
4.50257
4.47301
4.44318
4.4133
4.38368
4.35471
4.32692
4.30098
4.27768
4.25802
4.24319
4.23459
4.23387
4.24264
4.26344
4.29799
4.34752
4.41208
4.48883
4.56973
4.63571
4.65707
4.60147
4.4566
4.20797
4.20542
4.73376
4.73293
4.73132
4.72892
4.7257
4.72166
4.71681
4.71118
4.7048
4.69767
4.6898
4.68117
4.67178
4.66165
4.65078
4.63914
4.62671
4.61347
4.59945
4.58464
4.56908
4.55276
4.53569
4.51789
4.49935
4.48009
4.46013
4.43947
4.41811
4.39609
4.37346
4.35027
4.32655
4.30239
4.27792
4.25328
4.22869
4.20439
4.18066
4.15791
4.13664
4.11752
4.10139
4.08929
4.08251
4.08253
4.09084
4.11022
4.14298
4.19098
4.25569
4.33708
4.4319
4.53106
4.61633
4.65769
4.617
4.47804
4.16782
3.89593
4.50591
4.50506
4.50343
4.501
4.49778
4.49378
4.489
4.48346
4.47718
4.47014
4.46238
4.45389
4.4447
4.4348
4.4242
4.41289
4.40087
4.38814
4.37468
4.36051
4.34564
4.33011
4.31394
4.29715
4.27978
4.26184
4.24337
4.22439
4.20497
4.18513
4.16492
4.1444
4.12362
4.10268
4.08171
4.0609
4.04044
4.02056
4.00161
3.98395
3.96808
3.95465
3.94446
3.93845
3.93779
3.94359
3.95795
3.98254
4.01936
4.07037
4.13725
4.22091
4.32049
4.43086
4.53822
4.61351
4.60652
4.48433
4.15494
3.62326
4.31551
4.31464
4.31298
4.31056
4.30735
4.30335
4.29861
4.29311
4.28687
4.27988
4.27217
4.26373
4.25459
4.24478
4.23428
4.2231
4.21122
4.19865
4.18538
4.17144
4.15686
4.14169
4.12593
4.10962
4.09279
4.0755
4.05778
4.0397
4.02129
4.00261
3.98369
3.96463
3.94551
3.92643
3.90754
3.88898
3.871
3.85386
3.83785
3.82337
3.81095
3.80126
3.79512
3.79353
3.79752
3.80897
3.82988
3.86194
3.90729
3.96809
4.04597
4.14143
4.25321
4.37662
4.49932
4.59401
4.60727
4.49397
4.13
3.32291
4.15811
4.15724
4.15558
4.15315
4.14994
4.14595
4.14119
4.13567
4.12939
4.12238
4.11465
4.10619
4.09703
4.08718
4.07663
4.06538
4.05344
4.04082
4.02751
4.01352
3.9989
3.98368
3.96791
3.95162
3.93485
3.91766
3.90008
3.88219
3.86403
3.84569
3.82723
3.80873
3.79028
3.77203
3.75415
3.73681
3.72022
3.70463
3.69039
3.67789
3.66764
3.66034
3.65677
3.65777
3.66436
3.67866
3.70223
3.73684
3.78425
3.84611
3.92361
4.01711
4.12571
4.24611
4.37111
4.48178
4.52954
4.45397
4.10877
3.06099
4.02938
4.02855
4.02692
4.02451
4.02127
4.01723
4.01239
4.00681
4.00047
3.99339
3.98558
3.97705
3.9678
3.95782
3.94712
3.93571
3.92358
3.91073
3.89717
3.88292
3.86801
3.85248
3.83637
3.81973
3.80262
3.78506
3.76711
3.74886
3.73037
3.71171
3.69295
3.67421
3.65557
3.6372
3.61925
3.60194
3.58552
3.57026
3.55647
3.54456
3.53509
3.52873
3.5263
3.52857
3.53684
3.5533
3.57959
3.61803
3.67052
3.73865
3.82327
3.92393
4.03774
4.1592
4.28175
4.39331
4.45648
4.40432
4.06981
2.73436
3.9257
3.92484
3.92319
3.92074
3.91749
3.91343
3.90858
3.90294
3.89654
3.88941
3.88152
3.87288
3.86348
3.85332
3.8424
3.83073
3.81831
3.80516
3.79126
3.77662
3.76127
3.74525
3.72859
3.71134
3.69356
3.67529
3.6566
3.63755
3.61822
3.59868
3.579
3.55925
3.53959
3.52018
3.50122
3.48289
3.46544
3.44915
3.43437
3.42155
3.41124
3.40409
3.40098
3.40276
3.41048
3.42648
3.45251
3.49064
3.54269
3.6098
3.69223
3.78866
3.89492
4.00013
4.09505
4.1691
4.20449
4.15883
3.87861
2.35143
3.84321
3.84235
3.8407
3.83824
3.83496
3.83085
3.82594
3.82023
3.81373
3.80645
3.79838
3.78951
3.77987
3.76943
3.75821
3.74619
3.73337
3.71975
3.70533
3.69011
3.6741
3.65732
3.63984
3.62168
3.60291
3.58358
3.56373
3.54342
3.52272
3.50168
3.48036
3.45886
3.43734
3.41592
3.39478
3.37412
3.35416
3.33518
3.31751
3.30156
3.28785
3.27705
3.27009
3.26826
3.27222
3.28419
3.30743
3.3436
3.39512
3.46343
3.54779
3.64734
3.75758
3.85829
3.93969
3.97684
3.97132
3.90918
3.57135
1.8344
3.77612
3.7753
3.77368
3.77126
3.76801
3.76394
3.75906
3.7534
3.74693
3.73967
3.73162
3.72278
3.71311
3.70261
3.69129
3.67913
3.66613
3.65229
3.63759
3.62204
3.60562
3.58835
3.57028
3.55145
3.53188
3.51165
3.49079
3.46935
3.44737
3.42489
3.40198
3.37876
3.35537
3.33189
3.30851
3.28539
3.26276
3.24088
3.22008
3.20072
3.18324
3.16815
3.1562
3.14908
3.14726
3.15264
3.16742
3.19356
3.23277
3.28577
3.35281
3.4289
3.50365
3.5542
3.56374
3.48709
3.28624
2.87699
2.15448
1.32205
3.72265
3.72189
3.7204
3.71818
3.71522
3.71153
3.7071
3.70193
3.69603
3.68937
3.68197
3.67381
3.66489
3.65519
3.64469
3.63338
3.62126
3.6083
3.59452
3.57988
3.56439
3.54804
3.53081
3.51277
3.49398
3.47445
3.45422
3.4333
3.41177
3.38965
3.36702
3.34394
3.32049
3.29677
3.27288
3.24893
3.2251
3.20159
3.17865
3.1566
3.13573
3.11608
3.09803
3.08209
3.06911
3.06079
3.05817
3.06352
3.08087
3.11351
3.16187
3.2256
3.30401
3.39353
3.47258
3.50356
3.44215
3.22211
2.74307
1.88099
3.6855
3.6848
3.68343
3.68135
3.67856
3.67504
3.67081
3.66586
3.66023
3.65387
3.64677
3.63891
3.63026
3.62082
3.61057
3.59951
3.5876
3.57484
3.56122
3.54672
3.53133
3.51506
3.49797
3.48002
3.46121
3.44154
3.42102
3.39965
3.37749
3.35454
3.33088
3.30658
3.28169
3.2563
3.23049
3.20438
3.17808
3.15177
3.12565
3.10009
3.07558
3.053
3.03281
3.01545
3.0017
2.99246
2.98867
2.99032
2.998
3.0131
3.03597
3.07027
3.1192
3.17954
3.24028
3.27731
3.27389
3.17156
2.83589
2.04318
3.65972
3.65905
3.65775
3.65581
3.65322
3.64998
3.64607
3.64148
3.63622
3.63027
3.62362
3.61625
3.60813
3.59925
3.58958
3.57912
3.56787
3.5558
3.54285
3.52901
3.51424
3.49854
3.48188
3.46424
3.44565
3.42611
3.40564
3.38424
3.36193
3.33874
3.31472
3.28992
3.26441
3.23824
3.21148
3.18423
3.15661
3.12877
3.1009
3.0732
3.04584
3.01899
2.99336
2.96969
2.94852
2.93061
2.91704
2.91002
2.91012
2.92018
2.94468
2.98279
3.03216
3.08995
3.15138
3.20014
3.21282
3.14901
2.87501
2.2118
3.64365
3.64307
3.6419
3.64016
3.63781
3.63486
3.63129
3.62711
3.62229
3.61683
3.61069
3.60386
3.5963
3.58798
3.57888
3.56895
3.55818
3.54655
3.53402
3.52058
3.50621
3.49088
3.47454
3.45719
3.43881
3.41942
3.39905
3.37768
3.35533
3.33204
3.30782
3.28273
3.25681
3.23011
3.20273
3.17471
3.14618
3.11722
3.08797
3.05866
3.02954
3.0012
2.97405
2.94849
2.92503
2.90441
2.88759
2.876
2.87155
2.87468
2.88752
2.91254
2.95243
3.00695
3.07081
3.13291
3.16581
3.14023
2.94441
2.32907
3.63587
3.63532
3.63423
3.6326
3.63042
3.62766
3.62432
3.62039
3.61586
3.6107
3.60489
3.59841
3.59123
3.58331
3.57462
3.5651
3.5547
3.54336
3.5311
3.51792
3.50379
3.4887
3.47259
3.45542
3.43721
3.41796
3.39768
3.37636
3.35402
3.33068
3.30636
3.28112
3.25497
3.22798
3.2002
3.17172
3.14262
3.11297
3.08283
3.05221
3.02152
2.99105
2.96116
2.93235
2.90515
2.88044
2.85933
2.84311
2.83422
2.83372
2.84514
2.87085
2.9114
2.96593
3.03146
3.09915
3.14325
3.13644
2.9716
2.42417
3.63296
3.63246
3.63145
3.62991
3.62782
3.62518
3.62198
3.61821
3.61385
3.6089
3.60331
3.59706
3.59012
3.58244
3.574
3.5648
3.55482
3.54406
3.53245
3.51996
3.50653
3.4921
3.47663
3.46006
3.44238
3.42357
3.40365
3.3826
3.36041
3.33708
3.31266
3.28715
3.26057
3.23297
3.20441
3.17496
3.14474
3.11392
3.08271
3.05135
3.01995
2.98869
2.95773
2.92737
2.89845
2.87177
2.84839
2.82982
2.81791
2.81432
2.82081
2.83973
2.87405
2.92533
2.99101
3.06307
3.12145
3.13377
3.0178
2.5118
3.63282
3.63234
3.63141
3.63002
3.62816
3.62583
3.62299
3.61965
3.61577
3.61134
3.60632
3.60066
3.59433
3.5873
3.57954
3.571
3.56164
3.55142
3.54031
3.52825
3.5152
3.50113
3.48601
3.46977
3.45236
3.4338
3.41409
3.39321
3.37113
3.34788
3.32347
3.29792
3.27124
3.24345
3.21458
3.18469
3.15385
3.12213
3.08967
3.05665
3.02334
2.99009
2.95741
2.92586
2.89584
2.86794
2.84275
2.82148
2.80604
2.79905
2.80245
2.82037
2.85466
2.9059
2.97254
3.04762
3.11369
3.13758
3.03845
2.57018
3.63811
3.63769
3.63685
3.63559
3.63389
3.63173
3.62911
3.626
3.62238
3.61823
3.6135
3.60816
3.60218
3.59552
3.58814
3.58001
3.57108
3.56129
3.5506
3.53897
3.52635
3.51269
3.49795
3.48207
3.46502
3.44678
3.42732
3.40665
3.38474
3.36161
3.33724
3.31163
3.28483
3.25683
3.22769
3.19748
3.16625
3.13411
3.10118
3.06761
3.03361
2.99941
2.96532
2.93176
2.89939
2.8691
2.84207
2.81937
2.80187
2.79259
2.79327
2.80743
2.83752
2.8861
2.95206
3.0294
3.10318
3.13765
3.07313
2.63869
3.64539
3.64502
3.64427
3.64312
3.64157
3.63961
3.63722
3.63439
3.63108
3.62725
3.62288
3.61792
3.61235
3.60612
3.59919
3.59151
3.58301
3.57366
3.56339
3.55216
3.53992
3.52662
3.51222
3.49668
3.47995
3.46199
3.44278
3.42229
3.40054
3.37749
3.35313
3.32748
3.30054
3.27232
3.24288
3.21224
3.18048
3.14767
3.11396
3.07948
3.04444
3.00912
2.97384
2.93905
2.90531
2.87337
2.84421
2.81928
2.80047
2.78981
2.78841
2.80013
2.82904
2.87705
2.94342
3.02279
3.10152
3.14624
3.09016
2.67674
3.65481
3.65446
3.65376
3.65272
3.65131
3.64953
3.64735
3.64475
3.6417
3.63816
3.63412
3.62952
3.62433
3.6185
3.61198
3.60469
3.59659
3.58763
3.57775
3.56689
3.555
3.54205
3.52798
3.51276
3.49633
3.47865
3.45968
3.43942
3.41782
3.39488
3.37059
3.34494
3.31795
3.28963
3.26001
3.22913
3.19705
3.16388
3.12969
3.09467
3.059
3.02293
2.98678
2.95097
2.91606
2.88279
2.85209
2.82517
2.80367
2.79012
2.78702
2.79659
2.82276
2.86834
2.93365
3.01408
3.09633
3.14815
3.11613
2.73151
3.66557
3.66526
3.66464
3.66371
3.66244
3.66081
3.65882
3.65644
3.65366
3.65043
3.64673
3.64249
3.63767
3.6322
3.62604
3.61913
3.6114
3.60281
3.59329
3.58278
3.57124
3.55861
3.54485
3.52993
3.51377
3.49635
3.4776
3.45751
3.43605
3.41321
3.38895
3.36329
3.33621
3.30774
3.27789
3.24671
3.21424
3.18058
3.14581
3.11009
3.07361
3.0366
2.9994
2.96243
2.92623
2.89154
2.85935
2.83092
2.80786
2.79238
2.78711
2.79537
2.82017
2.86466
2.93006
3.01187
3.0979
3.15781
3.13114
2.75924
3.67741
3.67713
3.67656
3.67571
3.67457
3.67311
3.67133
3.66921
3.6667
3.66375
3.66033
3.6564
3.6519
3.64676
3.64095
3.63439
3.62702
3.61878
3.60959
3.59942
3.5882
3.5759
3.56245
3.54782
3.53195
3.51479
3.49626
3.47635
3.45505
3.43231
3.40811
3.38245
3.35533
3.32677
3.29679
3.26542
3.2327
3.19871
3.16355
3.12736
3.09033
3.05269
3.01476
2.97694
2.93978
2.904
2.87054
2.84065
2.81593
2.79845
2.791
2.79649
2.81936
2.86245
2.92667
3.00858
3.09591
3.1606
3.15049
2.80292
3.69001
3.68977
3.68927
3.68852
3.68751
3.68624
3.68466
3.68275
3.68048
3.67779
3.67465
3.67101
3.66681
3.662
3.65651
3.65027
3.64323
3.63531
3.62647
3.61662
3.60573
3.59372
3.58056
3.56618
3.55055
3.5336
3.5153
3.49559
3.47445
3.45183
3.42771
3.40205
3.37488
3.34621
3.31606
3.28446
3.25144
3.21708
3.18149
3.14478
3.10712
3.06873
3.02994
2.99112
2.95282
2.91574
2.88084
2.84939
2.82308
2.80392
2.79488
2.79883
2.82007
2.8621
2.92601
3.00903
3.09968
3.17131
3.1648
2.82483
3.70328
3.70306
3.70263
3.70199
3.70111
3.69998
3.69857
3.69685
3.69478
3.69233
3.68944
3.68606
3.68215
3.67763
3.67244
3.66653
3.65982
3.65224
3.64372
3.6342
3.62362
3.61192
3.59903
3.58492
3.56952
3.55281
3.53471
3.51518
3.49418
3.47167
3.44762
3.42201
3.39484
3.36612
3.33586
3.30409
3.27086
3.23623
3.20031
3.1632
3.12508
3.08617
3.04677
3.00727
2.96816
2.93012
2.89407
2.86125
2.83332
2.81234
2.8014
2.80345
2.82263
2.86251
2.92527
3.00805
3.09994
3.17519
3.17996
2.85862
3.717
3.71682
3.71644
3.71588
3.71511
3.71411
3.71286
3.71132
3.70946
3.70723
3.70458
3.70144
3.69779
3.69355
3.68866
3.68304
3.67663
3.66936
3.66116
3.65196
3.64169
3.6303
3.61772
3.60388
3.58874
3.57225
3.55437
3.53502
3.51416
3.49175
3.46776
3.44219
3.415
3.38622
3.35585
3.32393
3.29047
3.25557
3.21929
3.18176
3.14314
3.10365
3.06356
3.02327
2.98328
2.94423
2.90704
2.87289
2.8434
2.82076
2.80811
2.80875
2.82666
2.86565
2.92782
3.01112
3.10586
3.18637
3.19491
2.87753
3.73106
3.73089
3.73056
3.73007
3.7294
3.72853
3.72743
3.72606
3.72439
3.72235
3.71992
3.71704
3.71364
3.70966
3.70504
3.6997
3.69359
3.68662
3.67873
3.66985
3.65991
3.64882
3.63654
3.62299
3.60812
3.59187
3.57419
3.55501
3.53429
3.51199
3.48808
3.46255
3.43538
3.40656
3.3761
3.34404
3.31041
3.27529
3.23874
3.20087
3.16185
3.12187
3.08124
3.04032
2.99963
2.9598
2.92171
2.88656
2.85594
2.83195
2.81761
2.8162
2.83177
2.86843
2.92894
3.0119
3.10746
3.19083
3.20781
2.90655
3.74512
3.745
3.74473
3.74431
3.74374
3.74299
3.74203
3.74083
3.73935
3.73753
3.73534
3.7327
3.72955
3.72583
3.7215
3.71646
3.71064
3.70397
3.69638
3.68781
3.67816
3.66739
3.6554
3.64214
3.62754
3.61152
3.59404
3.57504
3.55448
3.53231
3.50851
3.48304
3.45588
3.42704
3.39651
3.36433
3.33054
3.29518
3.25834
3.22013
3.18067
3.14019
3.09897
3.05737
3.01586
2.9751
2.93594
2.89957
2.86761
2.84223
2.82648
2.82366
2.83802
2.87385
2.9339
3.017
3.11442
3.20195
3.22291
2.92398
3.75911
3.75901
3.75879
3.75846
3.758
3.75739
3.7566
3.75559
3.75431
3.75271
3.75075
3.74836
3.74548
3.74206
3.73801
3.73327
3.72776
3.72141
3.71413
3.70586
3.69652
3.68604
3.67432
3.66133
3.64697
3.63119
3.61394
3.59513
3.57474
3.55272
3.52902
3.50363
3.47652
3.44768
3.41712
3.38484
3.3509
3.31534
3.27825
3.23973
3.19993
3.15905
3.11734
3.07516
3.03299
2.99145
2.95141
2.91403
2.88089
2.85414
2.83675
2.83209
2.84429
2.87787
2.9362
3.01887
3.1169
3.20667
3.23369
2.94882
3.7732
3.77312
3.77295
3.7727
3.77235
3.77188
3.77124
3.7704
3.76932
3.76794
3.76622
3.76408
3.76147
3.75832
3.75456
3.75012
3.74492
3.73887
3.73191
3.72395
3.71491
3.70472
3.6933
3.68057
3.66647
3.65095
3.63391
3.61532
3.59511
3.57323
3.54965
3.52434
3.49727
3.46844
3.43784
3.40551
3.37146
3.33574
3.29842
3.2596
3.21943
3.17811
3.13587
3.09308
3.0502
3.00785
2.96686
2.9284
2.89403
2.86593
2.8471
2.84106
2.85201
2.88465
2.9425
3.02502
3.12444
3.21773
3.24901
2.96513
3.78737
3.78732
3.78721
3.78704
3.78679
3.78644
3.78595
3.78529
3.78442
3.78326
3.78177
3.77988
3.77754
3.77467
3.77121
3.76707
3.76218
3.75645
3.74979
3.74213
3.73338
3.72346
3.71231
3.69984
3.686
3.67072
3.65392
3.63554
3.61553
3.59382
3.57036
3.54514
3.51814
3.48934
3.45875
3.42636
3.3922
3.35633
3.31881
3.27974
3.23924
3.19753
3.15484
3.11151
3.06802
3.02496
2.98317
2.94377
2.90834
2.87901
2.85854
2.85062
2.85939
2.88977
2.94572
3.02768
3.12756
3.22265
3.25825
2.98702
3.80162
3.8016
3.80153
3.80144
3.8013
3.80107
3.80074
3.80027
3.79959
3.79865
3.7974
3.79577
3.7937
3.79111
3.78793
3.78408
3.77948
3.77404
3.76769
3.76034
3.75189
3.74227
3.7314
3.71922
3.70564
3.69059
3.67401
3.65584
3.63601
3.61446
3.59115
3.56605
3.53913