/*--------------------------------*- C++ -*----------------------------------*\
| =========                 |                                                 |
| \\      /  F ield         | OpenFOAM: The Open Source CFD Toolbox           |
|  \\    /   O peration     | Version:  v1906                                 |
|   \\  /    A nd           | Web:      www.OpenFOAM.com                      |
|    \\/     M anipulation  |                                                 |
\*---------------------------------------------------------------------------*/
FoamFile
{
    version     2.0;
    format      ascii;
    class       volScalarField;
    location    "2.83";
    object      N2;
}
// * * * * * * * * * * * * * * * * * * * * * * * * * * * * * * * * * * * * * //

dimensions      [0 0 0 0 0 0 0];


internalField   nonuniform List<scalar> 
26400
(
0.551206
0.55122
0.551249
0.551292
0.55135
0.551422
0.551508
0.551609
0.551724
0.551853
0.551996
0.552153
0.552325
0.55251
0.552709
0.552922
0.553148
0.553388
0.553642
0.553909
0.554189
0.554482
0.554788
0.555108
0.55544
0.555784
0.556141
0.556511
0.556893
0.557287
0.557693
0.55811
0.558539
0.55898
0.559433
0.559897
0.560374
0.560864
0.561365
0.56188
0.562407
0.562949
0.563505
0.564077
0.564667
0.565275
0.565906
0.566561
0.567245
0.567963
0.568723
0.569531
0.570397
0.571327
0.57232
0.573362
0.574422
0.575449
0.576385
0.577158
0.551082
0.551097
0.551127
0.551171
0.55123
0.551303
0.551391
0.551494
0.551611
0.551742
0.551888
0.552049
0.552223
0.552412
0.552615
0.552832
0.553063
0.553308
0.553566
0.553838
0.554123
0.554422
0.554734
0.555059
0.555398
0.555748
0.556112
0.556488
0.556877
0.557278
0.557691
0.558116
0.558552
0.559001
0.559461
0.559934
0.560419
0.560916
0.561425
0.561948
0.562483
0.563033
0.563596
0.564176
0.564772
0.565387
0.566023
0.566683
0.567371
0.568093
0.568855
0.569666
0.570534
0.571469
0.572472
0.57353
0.574611
0.575659
0.57661
0.577393
0.55093
0.550945
0.550975
0.55102
0.55108
0.551156
0.551246
0.551351
0.551471
0.551606
0.551755
0.55192
0.552099
0.552292
0.5525
0.552722
0.552958
0.553209
0.553473
0.553751
0.554043
0.554349
0.554668
0.555
0.555346
0.555705
0.556076
0.55646
0.556857
0.557266
0.557688
0.558121
0.558566
0.559024
0.559493
0.559975
0.560469
0.560975
0.561493
0.562024
0.562568
0.563126
0.563698
0.564285
0.564889
0.56551
0.566152
0.566818
0.567511
0.568236
0.569001
0.569813
0.570684
0.571623
0.572634
0.573706
0.574807
0.575878
0.576845
0.577637
0.550767
0.550782
0.550813
0.55086
0.550921
0.550999
0.551091
0.551199
0.551322
0.551461
0.551614
0.551783
0.551966
0.552164
0.552377
0.552605
0.552847
0.553104
0.553375
0.55366
0.553959
0.554272
0.554598
0.554938
0.555292
0.555658
0.556038
0.556431
0.556836
0.557255
0.557685
0.558127
0.558582
0.559048
0.559527
0.560018
0.560521
0.561036
0.561564
0.562104
0.562657
0.563223
0.563803
0.564399
0.56501
0.565639
0.566287
0.566958
0.567656
0.568384
0.569151
0.569965
0.570837
0.571778
0.572796
0.573882
0.575005
0.576101
0.577087
0.577886
0.550598
0.550614
0.550646
0.550693
0.550757
0.550836
0.550931
0.551042
0.551168
0.55131
0.551468
0.551641
0.551829
0.552032
0.552251
0.552484
0.552732
0.552996
0.553273
0.553565
0.553871
0.554192
0.554526
0.554874
0.555236
0.555611
0.555999
0.556401
0.556815
0.557242
0.557681
0.558133
0.558597
0.559073
0.559561
0.560062
0.560574
0.561099
0.561636
0.562185
0.562747
0.563322
0.563911
0.564515
0.565134
0.56577
0.566426
0.567103
0.567805
0.568538
0.569308
0.570123
0.570996
0.571938
0.572961
0.574061
0.575206
0.576328
0.577333
0.578142
0.550424
0.55044
0.550473
0.550522
0.550587
0.550668
0.550766
0.55088
0.551009
0.551155
0.551317
0.551494
0.551687
0.551896
0.55212
0.55236
0.552614
0.552884
0.553168
0.553468
0.553781
0.554109
0.554452
0.554808
0.555178
0.555562
0.555959
0.556369
0.556793
0.557229
0.557678
0.558139
0.558613
0.559099
0.559597
0.560107
0.560629
0.561163
0.56171
0.562269
0.56284
0.563425
0.564022
0.564635
0.565262
0.565906
0.566569
0.567252
0.56796
0.568697
0.569469
0.570286
0.571159
0.572101
0.573127
0.574239
0.575407
0.576558
0.577586
0.578402
0.550244
0.550261
0.550294
0.550345
0.550412
0.550495
0.550596
0.550712
0.550846
0.550995
0.551161
0.551343
0.551541
0.551756
0.551985
0.552231
0.552492
0.552769
0.55306
0.553367
0.553688
0.554024
0.554375
0.554739
0.555118
0.555511
0.555917
0.556336
0.556769
0.557215
0.557673
0.558144
0.558628
0.559124
0.559632
0.560152
0.560684
0.561228
0.561785
0.562353
0.562934
0.563528
0.564135
0.564756
0.565392
0.566045
0.566715
0.567405
0.568119
0.568861
0.569637
0.570455
0.571328
0.57227
0.573297
0.574418
0.575608
0.576791
0.577844
0.578666
0.550059
0.550076
0.550111
0.550162
0.550231
0.550317
0.55042
0.55054
0.550677
0.55083
0.551001
0.551188
0.551391
0.551611
0.551846
0.552098
0.552366
0.552649
0.552948
0.553262
0.553592
0.553936
0.554295
0.554668
0.555056
0.555457
0.555873
0.556302
0.556744
0.557199
0.557668
0.558149
0.558643
0.559149
0.559667
0.560197
0.56074
0.561294
0.561861
0.562439
0.56303
0.563634
0.56425
0.564881
0.565526
0.566186
0.566864
0.567562
0.568282
0.569029
0.569808
0.570629
0.571502
0.572443
0.57347
0.574596
0.575807
0.577024
0.578105
0.578933
0.549868
0.549886
0.549921
0.549974
0.550045
0.550133
0.550239
0.550362
0.550502
0.55066
0.550835
0.551027
0.551235
0.551461
0.551703
0.551961
0.552235
0.552526
0.552832
0.553154
0.553491
0.553844
0.554211
0.554593
0.55499
0.555401
0.555826
0.556264
0.556716
0.557182
0.55766
0.558151
0.558655
0.559172
0.559701
0.560242
0.560795
0.561359
0.561936
0.562525
0.563126
0.56374
0.564366
0.565006
0.56566
0.56633
0.567016
0.567721
0.568448
0.569201
0.569985
0.570808
0.571683
0.572623
0.573648
0.574777
0.576006
0.577257
0.57837
0.579202
0.549671
0.549689
0.549725
0.54978
0.549852
0.549943
0.550051
0.550178
0.550322
0.550484
0.550663
0.55086
0.551074
0.551305
0.551554
0.551818
0.5521
0.552398
0.552711
0.553041
0.553387
0.553747
0.554123
0.554514
0.55492
0.55534
0.555775
0.556223
0.556685
0.55716
0.557649
0.558151
0.558666
0.559193
0.559732
0.560284
0.560848
0.561423
0.562011
0.562611
0.563223
0.563846
0.564483
0.565133
0.565796
0.566475
0.56717
0.567883
0.568617
0.569376
0.570165
0.570992
0.571867
0.572807
0.573831
0.574962
0.576202
0.577487
0.578634
0.579467
0.549467
0.549486
0.549523
0.549579
0.549654
0.549747
0.549858
0.549988
0.550136
0.550302
0.550486
0.550688
0.550907
0.551144
0.551399
0.55167
0.551958
0.552263
0.552585
0.552923
0.553276
0.553645
0.55403
0.55443
0.554845
0.555275
0.555719
0.556177
0.556649
0.557135
0.557634
0.558146
0.558672
0.55921
0.55976
0.560323
0.560898
0.561485
0.562083
0.562694
0.563317
0.563952
0.564599
0.565259
0.565933
0.566621
0.567325
0.568046
0.568788
0.569554
0.570348
0.571179
0.572057
0.572996
0.574019
0.575149
0.576399
0.577713
0.578896
0.579726
0.549257
0.549276
0.549314
0.549372
0.549448
0.549544
0.549658
0.549791
0.549943
0.550113
0.550302
0.550509
0.550734
0.550977
0.551237
0.551515
0.55181
0.552123
0.552452
0.552797
0.553159
0.553537
0.55393
0.554339
0.554764
0.555203
0.555656
0.556124
0.556607
0.557103
0.557612
0.558135
0.558672
0.559221
0.559782
0.560357
0.560943
0.561541
0.562151
0.562773
0.563408
0.564054
0.564712
0.565383
0.566068
0.566766
0.56748
0.56821
0.56896
0.569733
0.570533
0.571368
0.572248
0.573188
0.574209
0.575339
0.576596
0.577933
0.579149
0.579972
0.54904
0.549059
0.549099
0.549157
0.549236
0.549334
0.549451
0.549587
0.549743
0.549917
0.55011
0.550322
0.550553
0.550801
0.551068
0.551353
0.551655
0.551974
0.552311
0.552664
0.553034
0.55342
0.553822
0.55424
0.554673
0.555122
0.555585
0.556063
0.556555
0.557061
0.557582
0.558116
0.558663
0.559223
0.559796
0.560382
0.56098
0.56159
0.562212
0.562846
0.563492
0.56415
0.56482
0.565503
0.566199
0.566908
0.567632
0.568373
0.569132
0.569913
0.57072
0.57156
0.572442
0.573382
0.574401
0.575529
0.57679
0.578146
0.579389
0.580199
0.548816
0.548836
0.548876
0.548936
0.549016
0.549116
0.549236
0.549376
0.549535
0.549713
0.549911
0.550128
0.550363
0.550618
0.55089
0.551181
0.55149
0.551816
0.55216
0.552521
0.552899
0.553293
0.553704
0.55413
0.554572
0.55503
0.555502
0.55599
0.556492
0.557008
0.557539
0.558083
0.558642
0.559213
0.559797
0.560394
0.561004
0.561626
0.56226
0.562907
0.563565
0.564236
0.564919
0.565614
0.566322
0.567044
0.56778
0.568531
0.569301
0.57009
0.570905
0.571751
0.572637
0.573578
0.574595
0.575719
0.576981
0.578349
0.579609
0.580404
0.548585
0.548605
0.548646
0.548708
0.548789
0.548892
0.549014
0.549157
0.549319
0.549501
0.549703
0.549924
0.550165
0.550424
0.550702
0.550999
0.551314
0.551647
0.551997
0.552365
0.552751
0.553153
0.553571
0.554006
0.554456
0.554923
0.555404
0.555901
0.556412
0.556938
0.557479
0.558034
0.558603
0.559185
0.559781
0.560389
0.561011
0.561645
0.562291
0.56295
0.563622
0.564306
0.565002
0.565711
0.566433
0.567168
0.567917
0.568681
0.569462
0.570263
0.571086
0.571939
0.57283
0.573773
0.574789
0.575909
0.577168
0.578538
0.579801
0.580587
0.548346
0.548367
0.548409
0.548472
0.548555
0.548659
0.548784
0.548929
0.549095
0.54928
0.549486
0.549711
0.549955
0.55022
0.550503
0.550804
0.551125
0.551464
0.55182
0.552195
0.552587
0.552995
0.553421
0.553863
0.554322
0.554796
0.555286
0.555791
0.556311
0.556846
0.557396
0.557961
0.55854
0.559132
0.559738
0.560358
0.560991
0.561637
0.562296
0.562967
0.563652
0.564349
0.56506
0.565783
0.566519
0.567269
0.568032
0.568811
0.569606
0.570419
0.571253
0.572115
0.573011
0.573956
0.574969
0.576082
0.577331
0.578693
0.579954
0.580752
0.548101
0.548122
0.548165
0.548228
0.548313
0.548419
0.548546
0.548693
0.548861
0.549049
0.549258
0.549486
0.549735
0.550003
0.55029
0.550596
0.550921
0.551265
0.551626
0.552006
0.552403
0.552818
0.553249
0.553698
0.554162
0.554643
0.55514
0.555653
0.55618
0.556723
0.557281
0.557855
0.558443
0.559045
0.559661
0.560291
0.560934
0.561591
0.562262
0.562946
0.563643
0.564354
0.565078
0.565816
0.566567
0.567333
0.568112
0.568907
0.569717
0.570544
0.571392
0.572263
0.573165
0.57411
0.575117
0.576217
0.577447
0.578794
0.580064
0.580903
0.547849
0.547871
0.547914
0.547978
0.548064
0.548171
0.548299
0.548448
0.548617
0.548808
0.549018
0.549249
0.5495
0.549771
0.550061
0.550371
0.550699
0.551046
0.551412
0.551796
0.552197
0.552616
0.553052
0.553505
0.553975
0.55446
0.554962
0.55548
0.556013
0.556561
0.557126
0.557706
0.558301
0.558911
0.559535
0.560173
0.560826
0.561493
0.562174
0.562869
0.563578
0.564302
0.56504
0.565793
0.56656
0.567342
0.56814
0.568952
0.569781
0.570627
0.571491
0.572378
0.573291
0.574241
0.575243
0.576326
0.577531
0.578859
0.58014
0.581046
0.547592
0.547614
0.547657
0.547722
0.547808
0.547915
0.548044
0.548193
0.548364
0.548555
0.548767
0.548999
0.549252
0.549524
0.549815
0.550126
0.550457
0.550805
0.551173
0.551558
0.551962
0.552383
0.552822
0.553277
0.553749
0.554238
0.554743
0.555263
0.5558
0.556352
0.55692
0.557505
0.558104
0.558718
0.559347
0.559991
0.56065
0.561324
0.562013
0.562717
0.563437
0.564172
0.564924
0.565692
0.566476
0.567278
0.568097
0.568934
0.56979
0.570663
0.571557
0.572471
0.573411
0.574382
0.575397
0.57648
0.577659
0.578926
0.580183
0.581186
0.54733
0.547352
0.547395
0.54746
0.547546
0.547653
0.547782
0.547931
0.548102
0.548293
0.548505
0.548736
0.548988
0.54926
0.549552
0.549862
0.550192
0.550541
0.550908
0.551293
0.551696
0.552116
0.552554
0.553009
0.553481
0.553969
0.554473
0.554994
0.555529
0.556081
0.556649
0.557234
0.557833
0.558448
0.559078
0.559723
0.560384
0.56106
0.561752
0.56246
0.563185
0.563928
0.564688
0.565466
0.566264
0.567082
0.567921
0.568782
0.569666
0.570572
0.571503
0.572458
0.57344
0.574453
0.575506
0.576617
0.577797
0.579015
0.580226
0.581336
0.547064
0.547085
0.547128
0.547192
0.547278
0.547384
0.547512
0.54766
0.547829
0.548019
0.548229
0.548459
0.548709
0.548978
0.549267
0.549575
0.549902
0.550248
0.550611
0.550993
0.551393
0.55181
0.552244
0.552694
0.553161
0.553645
0.554144
0.554658
0.555189
0.555734
0.556295
0.556873
0.557465
0.558072
0.558694
0.559331
0.559983
0.56065
0.561333
0.562032
0.562748
0.563481
0.564232
0.565003
0.565794
0.566607
0.567443
0.568304
0.569192
0.570105
0.571046
0.572012
0.573004
0.574021
0.575071
0.576162
0.577333
0.578572
0.579931
0.581451
0.546805
0.546827
0.546872
0.54694
0.54703
0.547143
0.547277
0.547434
0.547612
0.547813
0.548034
0.548277
0.548541
0.548826
0.549131
0.549456
0.549801
0.550166
0.55055
0.550953
0.551374
0.551814
0.552272
0.552747
0.55324
0.55375
0.554276
0.554819
0.555377
0.555952
0.556543
0.557151
0.557775
0.558415
0.55907
0.55974
0.560426
0.561129
0.561847
0.562583
0.563337
0.56411
0.564903
0.565718
0.566556
0.567419
0.568308
0.569223
0.570165
0.571134
0.572132
0.573157
0.57421
0.575292
0.576404
0.577548
0.578744
0.580031
0.581432
0.58256
0.546555
0.546579
0.546627
0.546699
0.546795
0.546914
0.547057
0.547223
0.547413
0.547625
0.54786
0.548118
0.548398
0.5487
0.549023
0.549368
0.549734
0.55012
0.550527
0.550953
0.551399
0.551864
0.552348
0.552851
0.553371
0.553909
0.554464
0.555036
0.555625
0.55623
0.556852
0.557492
0.558148
0.55882
0.559507
0.56021
0.560929
0.561665
0.562417
0.563187
0.563974
0.56478
0.565605
0.566452
0.56732
0.568211
0.569126
0.570066
0.571033
0.572025
0.573041
0.57408
0.575135
0.576202
0.577276
0.578357
0.579463
0.580631
0.581868
0.582872
0.546314
0.54634
0.54639
0.546466
0.546567
0.546693
0.546844
0.547019
0.547219
0.547443
0.547692
0.547963
0.548259
0.548577
0.548918
0.549281
0.549666
0.550073
0.5505
0.550949
0.551418
0.551906
0.552414
0.552941
0.553486
0.554049
0.55463
0.555228
0.555843
0.556474
0.557123
0.557789
0.558471
0.559168
0.559881
0.560609
0.561353
0.562113
0.562889
0.563682
0.564492
0.565321
0.566169
0.567037
0.567926
0.568838
0.569774
0.570732
0.571713
0.572716
0.573736
0.57477
0.575809
0.576848
0.577882
0.578915
0.579962
0.581054
0.582202
0.583129
0.546082
0.546109
0.546162
0.546241
0.546347
0.546479
0.546638
0.546822
0.547031
0.547266
0.547527
0.547811
0.548121
0.548454
0.548811
0.549191
0.549594
0.550019
0.550466
0.550935
0.551424
0.551934
0.552463
0.553012
0.55358
0.554166
0.554769
0.55539
0.556028
0.556681
0.557353
0.558042
0.558746
0.559465
0.5602
0.560949
0.561713
0.562492
0.563287
0.564098
0.564925
0.565769
0.56663
0.567511
0.568411
0.569331
0.570273
0.571235
0.572218
0.573219
0.574234
0.575259
0.576286
0.577309
0.57832
0.579319
0.580318
0.581349
0.58243
0.583323
0.54586
0.545888
0.545943
0.546026
0.546136
0.546274
0.546439
0.546631
0.54685
0.547095
0.547366
0.547663
0.547985
0.548332
0.548704
0.549099
0.549518
0.549961
0.550425
0.550912
0.551419
0.551948
0.552497
0.553065
0.553652
0.554258
0.554881
0.555522
0.556179
0.556853
0.557543
0.558251
0.558974
0.559711
0.560462
0.561228
0.562008
0.562802
0.563611
0.564435
0.565273
0.566128
0.567
0.56789
0.568798
0.569726
0.570674
0.571641
0.572627
0.57363
0.574646
0.575667
0.576685
0.577694
0.578686
0.579661
0.580629
0.581615
0.582643
0.583508
0.545649
0.545678
0.545735
0.545821
0.545936
0.546078
0.546249
0.546448
0.546675
0.54693
0.547212
0.54752
0.547854
0.548214
0.548599
0.549008
0.549442
0.5499
0.55038
0.550883
0.551407
0.551953
0.552519
0.553105
0.55371
0.554334
0.554975
0.555634
0.556308
0.556999
0.557707
0.558431
0.55917
0.559923
0.56069
0.56147
0.562263
0.56307
0.563891
0.564725
0.565574
0.566438
0.567317
0.568213
0.569127
0.570058
0.571008
0.571976
0.572962
0.573964
0.574977
0.575995
0.57701
0.578014
0.578996
0.579953
0.580893
0.581842
0.582827
0.583674
0.545449
0.545479
0.545538
0.545627
0.545746
0.545893
0.546069
0.546275
0.546511
0.546775
0.547066
0.547384
0.54773
0.548101
0.548498
0.548921
0.549368
0.54984
0.550335
0.550853
0.551393
0.551954
0.552536
0.553138
0.553759
0.554399
0.555056
0.55573
0.55642
0.557126
0.557849
0.558588
0.55934
0.560107
0.560886
0.561679
0.562484
0.563301
0.564132
0.564975
0.565832
0.566703
0.567588
0.56849
0.569408
0.570343
0.571296
0.572268
0.573256
0.574261
0.575275
0.576293
0.577306
0.578305
0.57928
0.580226
0.581147
0.582063
0.583005
0.583834
0.545263
0.545294
0.545355
0.545447
0.545569
0.545722
0.545904
0.546117
0.546359
0.54663
0.546929
0.547256
0.547611
0.547994
0.548402
0.548837
0.549297
0.549782
0.55029
0.550822
0.551376
0.551952
0.552548
0.553165
0.553801
0.554455
0.555128
0.555816
0.556521
0.557241
0.557978
0.558731
0.559497
0.560276
0.561067
0.561871
0.562686
0.563514
0.564354
0.565205
0.56607
0.566947
0.567839
0.568746
0.569668
0.570606
0.571562
0.572535
0.573524
0.574528
0.575542
0.576561
0.577577
0.578577
0.57955
0.580488
0.581391
0.58228
0.583186
0.583997
0.545086
0.545118
0.545181
0.545276
0.545402
0.545559
0.545746
0.545965
0.546213
0.546491
0.546799
0.547135
0.5475
0.547892
0.548312
0.548758
0.54923
0.549726
0.550248
0.550792
0.55136
0.551949
0.552559
0.55319
0.55384
0.554508
0.555194
0.555897
0.556615
0.557348
0.558098
0.558863
0.559641
0.560432
0.561234
0.562049
0.562874
0.563711
0.564559
0.565419
0.56629
0.567174
0.568071
0.568982
0.569909
0.570851
0.57181
0.572786
0.573778
0.574785
0.575802
0.576823
0.577839
0.57884
0.579812
0.580747
0.581639
0.582505
0.583374
0.584166
0.54492
0.544952
0.545017
0.545114
0.545244
0.545405
0.545598
0.545822
0.546077
0.546362
0.546678
0.547022
0.547396
0.547798
0.548228
0.548685
0.549168
0.549677
0.55021
0.550767
0.551347
0.551949
0.552572
0.553216
0.553879
0.554561
0.55526
0.555975
0.556706
0.557452
0.558214
0.558992
0.559781
0.560583
0.561397
0.562221
0.563056
0.563902
0.564759
0.565626
0.566505
0.567395
0.568298
0.569215
0.570146
0.571092
0.572054
0.573032
0.574026
0.575034
0.576053
0.577076
0.578096
0.5791
0.580074
0.581005
0.581886
0.58273
0.583568
0.584337
0.544763
0.544797
0.544863
0.544963
0.545095
0.545261
0.545458
0.545688
0.545949
0.546242
0.546565
0.546918
0.547301
0.547712
0.548152
0.548619
0.549113
0.549633
0.550178
0.550747
0.551339
0.551954
0.55259
0.553246
0.553922
0.554616
0.555328
0.556056
0.5568
0.557558
0.558332
0.559121
0.559922
0.560735
0.561559
0.562393
0.563238
0.564092
0.564957
0.565832
0.566718
0.567615
0.568524
0.569445
0.570381
0.571331
0.572297
0.573279
0.574276
0.575286
0.576307
0.577333
0.578354
0.579359
0.580333
0.581263
0.582137
0.582962
0.583766
0.58451
0.544616
0.54465
0.544718
0.54482
0.544956
0.545125
0.545328
0.545563
0.545831
0.54613
0.546461
0.546822
0.547214
0.547635
0.548084
0.548562
0.549066
0.549597
0.550154
0.550735
0.551339
0.551966
0.552614
0.553283
0.553971
0.554678
0.555402
0.556143
0.556898
0.557669
0.558454
0.559255
0.560067
0.560891
0.561725
0.56257
0.563424
0.564288
0.565161
0.566044
0.566937
0.567841
0.568756
0.569684
0.570624
0.571579
0.572549
0.573533
0.574533
0.575545
0.576567
0.577594
0.578617
0.579624
0.5806
0.581527
0.582393
0.583199
0.583971
0.584687
0.544477
0.544511
0.544581
0.544686
0.544825
0.544998
0.545206
0.545447
0.54572
0.546027
0.546365
0.546735
0.547135
0.547565
0.548025
0.548513
0.549028
0.54957
0.550138
0.550731
0.551347
0.551986
0.552647
0.553328
0.554029
0.554748
0.555485
0.556238
0.557006
0.557788
0.558586
0.559398
0.560222
0.561057
0.561901
0.562756
0.56362
0.564493
0.565375
0.566266
0.567167
0.568078
0.568999
0.569933
0.570879
0.571839
0.572813
0.573801
0.574804
0.575818
0.576842
0.57787
0.578892
0.579898
0.580872
0.581797
0.582657
0.583447
0.584185
0.58487
0.544345
0.54438
0.544452
0.544559
0.544702
0.544879
0.545091
0.545338
0.545618
0.545932
0.546278
0.546656
0.547065
0.547505
0.547975
0.548473
0.549
0.549553
0.550133
0.550737
0.551366
0.552017
0.55269
0.553384
0.554098
0.55483
0.555579
0.556345
0.557126
0.55792
0.55873
0.559554
0.56039
0.561236
0.562092
0.562957
0.56383
0.564713
0.565604
0.566504
0.567413
0.568331
0.56926
0.5702
0.571153
0.572118
0.573097
0.574089
0.575095
0.576112
0.577136
0.578164
0.579186
0.58019
0.581162
0.582083
0.582934
0.583705
0.584412
0.58506
0.544219
0.544256
0.544329
0.544439
0.544585
0.544767
0.544984
0.545237
0.545523
0.545844
0.546198
0.546585
0.547004
0.547454
0.547934
0.548443
0.548981
0.549546
0.550138
0.550755
0.551396
0.55206
0.552747
0.553454
0.554181
0.554926
0.555688
0.556467
0.557261
0.558068
0.558891
0.559728
0.560575
0.561433
0.5623
0.563176
0.56406
0.564953
0.565853
0.566762
0.56768
0.568607
0.569544
0.570491
0.57145
0.572422
0.573407
0.574404
0.575414
0.576434
0.57746
0.578487
0.579505
0.580504
0.58147
0.582384
0.583227
0.583981
0.584654
0.58526
0.544099
0.544137
0.544212
0.544325
0.544474
0.544661
0.544883
0.545142
0.545436
0.545764
0.546127
0.546523
0.546951
0.547412
0.547902
0.548423
0.548973
0.549551
0.550155
0.550785
0.551439
0.552117
0.552817
0.553538
0.554279
0.555038
0.555814
0.556607
0.557414
0.558236
0.559072
0.559922
0.560782
0.561652
0.562532
0.563419
0.564315
0.565218
0.566129
0.567048
0.567976
0.568912
0.569858
0.570814
0.571781
0.57276
0.573752
0.574755
0.57577
0.576793
0.577821
0.578847
0.579862
0.580855
0.581811
0.582715
0.583545
0.58428
0.584916
0.585474
0.543984
0.544023
0.5441
0.544216
0.544369
0.54456
0.544789
0.545054
0.545355
0.545692
0.546063
0.546469
0.546908
0.547379
0.547881
0.548414
0.548977
0.549567
0.550185
0.550829
0.551497
0.55219
0.552904
0.55364
0.554395
0.555169
0.55596
0.556767
0.557589
0.558425
0.559277
0.560141
0.561015
0.561899
0.562791
0.563691
0.564599
0.565514
0.566437
0.567368
0.568306
0.569253
0.570209
0.571175
0.572153
0.573141
0.574142
0.575154
0.576175
0.577204
0.578234
0.57926
0.580269
0.581252
0.582196
0.583084
0.583897
0.58461
0.585207
0.585711
0.543874
0.543913
0.543992
0.544111
0.544269
0.544465
0.5447
0.544972
0.545281
0.545626
0.546007
0.546423
0.546873
0.547355
0.54787
0.548416
0.548992
0.549597
0.550229
0.550887
0.551571
0.552279
0.553009
0.55376
0.554531
0.555321
0.556127
0.55695
0.557789
0.558644
0.559511
0.560389
0.561278
0.562176
0.563082
0.563997
0.564918
0.565847
0.566783
0.567727
0.568678
0.569638
0.570607
0.571585
0.572574
0.573575
0.574587
0.575609
0.57664
0.577676
0.578712
0.579738
0.580744
0.581718
0.582647
0.583515
0.584305
0.584991
0.585547
0.585986
0.543766
0.543807
0.543889
0.544011
0.544173
0.544374
0.544615
0.544895
0.545212
0.545567
0.545958
0.546385
0.546846
0.547342
0.54787
0.54843
0.54902
0.549639
0.550287
0.550962
0.551662
0.552386
0.553133
0.553901
0.554689
0.555496
0.55632
0.55716
0.558017
0.558889
0.559773
0.560669
0.561574
0.562488
0.563411
0.564341
0.565278
0.566222
0.567174
0.568133
0.569099
0.570074
0.571058
0.572051
0.573055
0.574071
0.575097
0.576133
0.577176
0.578223
0.579265
0.580295
0.581298
0.582262
0.583172
0.584015
0.584776
0.585432
0.585952
0.586333
0.543662
0.543704
0.543788
0.543913
0.54408
0.544287
0.544535
0.544823
0.545149
0.545514
0.545916
0.546354
0.546829
0.547338
0.54788
0.548455
0.549061
0.549697
0.550361
0.551053
0.551771
0.552513
0.553278
0.554065
0.554872
0.555697
0.55654
0.557399
0.558276
0.559167
0.560071
0.560985
0.561908
0.562841
0.563781
0.56473
0.565685
0.566648
0.567618
0.568595
0.569581
0.570575
0.571578
0.572592
0.573617
0.574654
0.575701
0.576758
0.577821
0.578885
0.579942
0.58098
0.581987
0.582945
0.583838
0.584653
0.585376
0.585993
0.586492
0.586839
0.543547
0.543589
0.543672
0.543796
0.543961
0.544167
0.544412
0.544696
0.54502
0.545381
0.545779
0.546213
0.546683
0.547187
0.547724
0.548293
0.548894
0.549524
0.550182
0.550867
0.551579
0.552314
0.553072
0.553852
0.554652
0.555471
0.556306
0.557158
0.558027
0.558911
0.559807
0.560713
0.561629
0.562554
0.563487
0.564427
0.565374
0.566327
0.567287
0.568255
0.569229
0.570212
0.571203
0.572204
0.573217
0.574241
0.575278
0.576328
0.577389
0.578458
0.579529
0.580593
0.581637
0.582645
0.583599
0.584482
0.585277
0.585968
0.586536
0.586946
0.543434
0.543474
0.543556
0.543678
0.543841
0.544043
0.544285
0.544565
0.544883
0.545239
0.545631
0.54606
0.546523
0.54702
0.54755
0.548111
0.548704
0.549326
0.549976
0.550653
0.551355
0.552082
0.552832
0.553603
0.554395
0.555205
0.556032
0.556876
0.557737
0.558613
0.559502
0.560401
0.56131
0.562228
0.563154
0.564088
0.565028
0.565976
0.56693
0.567891
0.56886
0.569836
0.570821
0.571816
0.572822
0.57384
0.574871
0.575915
0.576973
0.578044
0.579124
0.580207
0.581282
0.582335
0.583347
0.584298
0.585168
0.585936
0.586581
0.587062
0.543322
0.543362
0.543443
0.543563
0.543723
0.543923
0.544161
0.544437
0.544751
0.545102
0.54549
0.545912
0.54637
0.54686
0.547384
0.547939
0.548525
0.54914
0.549783
0.550453
0.551148
0.551868
0.552611
0.553375
0.554159
0.554963
0.555784
0.556621
0.557476
0.558347
0.559231
0.560125
0.56103
0.561944
0.562867
0.563797
0.564735
0.56568
0.566632
0.567591
0.568558
0.569533
0.570516
0.57151
0.572516
0.573534
0.574568
0.575616
0.576681
0.577763
0.578858
0.579961
0.581064
0.582153
0.583209
0.584212
0.585138
0.585963
0.586663
0.587189
0.543212
0.543252
0.543331
0.54345
0.543609
0.543806
0.544041
0.544315
0.544625
0.544973
0.545356
0.545774
0.546227
0.546713
0.547231
0.547781
0.548361
0.548971
0.549608
0.550273
0.550963
0.551677
0.552415
0.553174
0.553954
0.554752
0.555569
0.556402
0.557253
0.558121
0.559001
0.559893
0.560795
0.561707
0.562628
0.563558
0.564495
0.565439
0.566391
0.56735
0.568316
0.569291
0.570275
0.57127
0.572276
0.573295
0.57433
0.575382
0.576452
0.57754
0.578645
0.579764
0.580889
0.582007
0.5831
0.584146
0.58512
0.585996
0.586746
0.587315
0.543104
0.543143
0.543222
0.54334
0.543497
0.543692
0.543926
0.544197
0.544505
0.544849
0.545229
0.545644
0.546093
0.546576
0.547091
0.547637
0.548213
0.548819
0.549452
0.550113
0.550799
0.55151
0.552243
0.552999
0.553776
0.554571
0.555385
0.556216
0.557065
0.557931
0.558809
0.5597
0.560602
0.561514
0.562436
0.563366
0.564304
0.565249
0.566203
0.567164
0.568132
0.56911
0.570096
0.571094
0.572103
0.573126
0.574165
0.575222
0.576298
0.577395
0.578511
0.579645
0.580789
0.581932
0.583056
0.584137
0.585149
0.586063
0.58685
0.587448
0.542998
0.543037
0.543115
0.543232
0.543388
0.543582
0.543814
0.544083
0.544389
0.544731
0.545109
0.545522
0.545969
0.546449
0.546961
0.547504
0.548078
0.548681
0.549312
0.54997
0.550654
0.551362
0.552094
0.552848
0.553622
0.554416
0.555229
0.556058
0.556906
0.557772
0.55865
0.559541
0.560444
0.561357
0.562279
0.563211
0.564151
0.565099
0.566055
0.567019
0.567991
0.568971
0.569961
0.570961
0.571974
0.573001
0.574044
0.575106
0.576188
0.577291
0.578416
0.579561
0.580721
0.581883
0.583031
0.584141
0.585186
0.586136
0.586955
0.587581
0.542892
0.542931
0.543009
0.543125
0.543281
0.543474
0.543705
0.543973
0.544278
0.544619
0.544995
0.545406
0.545851
0.54633
0.54684
0.547382
0.547954
0.548556
0.549185
0.549842
0.550525
0.551232
0.551963
0.552716
0.55349
0.554284
0.555096
0.555926
0.556774
0.557641
0.55852
0.559413
0.560317
0.561232
0.562157
0.563091
0.564034
0.564985
0.565945
0.566912
0.567888
0.568873
0.569867
0.570872
0.571889
0.572921
0.573969
0.575035
0.576122
0.577232
0.578366
0.579522
0.580695
0.581875
0.583044
0.58418
0.585251
0.586228
0.587073
0.587719
0.542788
0.542826
0.542904
0.54302
0.543175
0.543368
0.543598
0.543865
0.54417
0.54451
0.544886
0.545296
0.54574
0.546218
0.546728
0.547269
0.547841
0.548442
0.549071
0.549727
0.55041
0.551117
0.551848
0.552601
0.553376
0.55417
0.554983
0.555814
0.556664
0.557532
0.558414
0.559309
0.560216
0.561133
0.562061
0.562999
0.563945
0.5649
0.565864
0.566835
0.567815
0.568804
0.569802
0.570812
0.571833
0.57287
0.573922
0.574994
0.576086
0.577202
0.578343
0.579508
0.580691
0.581885
0.583072
0.584228
0.585324
0.586325
0.587193
0.587857
0.542684
0.542722
0.5428
0.542916
0.543071
0.543263
0.543493
0.543761
0.544065
0.544405
0.54478
0.545191
0.545635
0.546113
0.546623
0.547164
0.547736
0.548337
0.548967
0.549624
0.550307
0.551015
0.551747
0.552501
0.553277
0.554073
0.554888
0.555721
0.556573
0.557444
0.558328
0.559226
0.560136
0.561058
0.561989
0.562931
0.563882
0.564841
0.565808
0.566784
0.567769
0.568763
0.569766
0.57078
0.571807
0.572848
0.573905
0.574981
0.576079
0.5772
0.578348
0.57952
0.580714
0.581921
0.583123
0.584297
0.585413
0.586434
0.587321
0.587998
0.54258
0.542619
0.542697
0.542813
0.542967
0.54316
0.54339
0.543658
0.543962
0.544302
0.544678
0.545089
0.545534
0.546012
0.546523
0.547065
0.547638
0.54824
0.548871
0.54953
0.550214
0.550924
0.551658
0.552414
0.553192
0.553991
0.554808
0.555644
0.556499
0.557372
0.55826
0.559162
0.560075
0.561001
0.561937
0.562883
0.563838
0.564802
0.565774
0.566755
0.567744
0.568742
0.56975
0.570769
0.5718
0.572846
0.573907
0.574988
0.576091
0.577218
0.578371
0.57955
0.580752
0.581969
0.583184
0.584374
0.585507
0.586547
0.58745
0.58814
0.542477
0.542516
0.542593
0.54271
0.542865
0.543058
0.543288
0.543556
0.543861
0.544203
0.544579
0.544991
0.545437
0.545917
0.546429
0.546972
0.547547
0.548151
0.548784
0.549444
0.550131
0.550843
0.551579
0.552338
0.553119
0.55392
0.554741
0.555579
0.556438
0.557315
0.558207
0.559112
0.560031
0.56096
0.561901
0.562851
0.563811
0.56478
0.565757
0.566743
0.567738
0.568741
0.569754
0.570777
0.571813
0.572863
0.573929
0.575015
0.576121
0.577253
0.578411
0.579597
0.580807
0.582033
0.58326
0.584464
0.585613
0.586668
0.587585
0.588285
0.542374
0.542413
0.542491
0.542607
0.542763
0.542956
0.543188
0.543457
0.543762
0.544105
0.544483
0.544896
0.545344
0.545825
0.546339
0.546884
0.547461
0.548067
0.548702
0.549365
0.550055
0.55077
0.551509
0.552271
0.553055
0.55386
0.554684
0.555526
0.556389
0.55727
0.558166
0.559076
0.559999
0.560933
0.561878
0.562834
0.563799
0.564773
0.565755
0.566746
0.567746
0.568754
0.569772
0.5708
0.57184
0.572895
0.573965
0.575055
0.576166
0.577302
0.578465
0.579655
0.580872
0.582106
0.583344
0.58456
0.585723
0.586792
0.587722
0.588431
0.54227
0.54231
0.542388
0.542505
0.542661
0.542855
0.543088
0.543358
0.543665
0.544009
0.544388
0.544803
0.545253
0.545736
0.546252
0.5468
0.547379
0.547988
0.548626
0.549292
0.549985
0.550703
0.551446
0.552212
0.553
0.553809
0.554637
0.555483
0.55635
0.557235
0.558136
0.559051
0.559978
0.560917
0.561868
0.562828
0.563798
0.564778
0.565765
0.566761
0.567766
0.568779
0.569802
0.570835
0.57188
0.572939
0.574014
0.575107
0.576222
0.577362
0.57853
0.579725
0.580947
0.582189
0.583437
0.584665
0.58584
0.586922
0.587863
0.588579
0.542167
0.542206
0.542285
0.542403
0.542559
0.542755
0.542988
0.543259
0.543568
0.543914
0.544295
0.544712
0.545164
0.54565
0.546169
0.546719
0.547302
0.547914
0.548555
0.549225
0.549921
0.550643
0.55139
0.55216
0.552952
0.553765
0.554598
0.555449
0.556321
0.557212
0.558117
0.559037
0.55997
0.560914
0.56187
0.562836
0.563811