/*--------------------------------*- C++ -*----------------------------------*\
| =========                 |                                                 |
| \\      /  F ield         | OpenFOAM: The Open Source CFD Toolbox           |
|  \\    /   O peration     | Version:  v1906                                 |
|   \\  /    A nd           | Web:      www.OpenFOAM.com                      |
|    \\/     M anipulation  |                                                 |
\*---------------------------------------------------------------------------*/
FoamFile
{
    version     2.0;
    format      ascii;
    class       volScalarField;
    location    "2.83";
    object      nut;
}
// * * * * * * * * * * * * * * * * * * * * * * * * * * * * * * * * * * * * * //

dimensions      [0 2 -1 0 0 0 0];


internalField   nonuniform List<scalar> 
26400
(
0.11409
0.114009
0.113847
0.113603
0.113279
0.112874
0.112389
0.111823
0.111177
0.110452
0.109647
0.108763
0.1078
0.106759
0.10564
0.104444
0.10317
0.101819
0.100392
0.0988877
0.0973077
0.0956519
0.0939205
0.0921137
0.0902316
0.0882744
0.0862422
0.0841352
0.0819534
0.079697
0.0773667
0.0749626
0.0724842
0.0699318
0.0673061
0.0646077
0.0618379
0.0589965
0.0560854
0.0531067
0.0500631
0.0469579
0.0437956
0.0405829
0.0373286
0.0340449
0.0307482
0.0274604
0.0242105
0.0210356
0.0179814
0.0151049
0.0124652
0.0101178
0.0080949
0.00638261
0.00491207
0.00356354
0.00219945
0.000719558
0.115016
0.114935
0.114773
0.11453
0.114206
0.113802
0.113318
0.112754
0.11211
0.111386
0.110584
0.109702
0.108743
0.107705
0.10659
0.105397
0.104128
0.102782
0.10136
0.0998619
0.098288
0.0966385
0.0949137
0.0931136
0.0912384
0.0892883
0.0872632
0.0851632
0.0829883
0.0807388
0.078415
0.0760172
0.0735448
0.0709979
0.0683765
0.0656805
0.0629101
0.0600673
0.0571527
0.0541676
0.0511142
0.0479958
0.0448166
0.0415819
0.0382991
0.0349784
0.0316338
0.0282846
0.0249572
0.0216877
0.0185243
0.0155223
0.0127491
0.0102702
0.00813655
0.00635986
0.00487567
0.00354755
0.00220959
0.00072108
0.115701
0.11562
0.115458
0.115216
0.114892
0.114488
0.114004
0.11344
0.112796
0.112073
0.11127
0.110389
0.109429
0.108391
0.107275
0.106082
0.104811
0.103464
0.10204
0.10054
0.0989631
0.0973105
0.095582
0.0937778
0.0918978
0.0899422
0.0879109
0.085804
0.0836216
0.0813635
0.0790306
0.0766229
0.07414
0.071582
0.0689494
0.0662426
0.0634624
0.0606092
0.057683
0.0546864
0.0516218
0.0484918
0.0452997
0.0420505
0.038751
0.0354103
0.0320416
0.0286628
0.0252989
0.0219842
0.0187648
0.0157004
0.0128622
0.0103251
0.00814725
0.00634127
0.0048467
0.00353664
0.00221207
0.000721709
0.11644
0.11636
0.116198
0.115956
0.115633
0.11523
0.114747
0.114185
0.113542
0.112821
0.11202
0.111141
0.110183
0.109148
0.108035
0.106845
0.105578
0.104234
0.102814
0.101317
0.0997449
0.0980965
0.0963723
0.0945724
0.0926968
0.0907455
0.0887185
0.0866157
0.0844372
0.0821828
0.0798531
0.0774482
0.0749676
0.0724112
0.0697792
0.0670719
0.0642899
0.0614344
0.058507
0.0555081
0.0524389
0.049302
0.0461009
0.04284
0.0395251
0.0361644
0.032769
0.0293545
0.025943
0.0225655
0.0192653
0.0161005
0.0131451
0.0104848
0.00819865
0.00632332
0.00481002
0.00349734
0.00221402
0.000721966
0.11717
0.11709
0.116929
0.116687
0.116366
0.115964
0.115482
0.114921
0.11428
0.11356
0.112762
0.111885
0.11093
0.109897
0.108787
0.107599
0.106334
0.104993
0.103575
0.102081
0.10051
0.0988639
0.0971412
0.0953424
0.0934674
0.0915162
0.0894887
0.0873847
0.0852041
0.0829468
0.0806133
0.0782038
0.0757175
0.0731544
0.0705147
0.0677986
0.0650066
0.0621395
0.0591983
0.056182
0.0530938
0.0499366
0.0467141
0.0434303
0.0400906
0.0367026
0.033277
0.0298284
0.0263776
0.0229539
0.0195985
0.0163685
0.0133374
0.0105944
0.00822809
0.0062913
0.00475207
0.00346694
0.00221107
0.000721846
0.117898
0.117818
0.117657
0.117417
0.117096
0.116696
0.116217
0.115658
0.11502
0.114303
0.113507
0.112634
0.111682
0.110653
0.109547
0.108363
0.107103
0.105766
0.104353
0.102863
0.101297
0.0996546
0.0979361
0.0961414
0.0942703
0.0923227
0.0902984
0.0881972
0.086019
0.0837634
0.081431
0.0790219
0.0765351
0.0739707
0.0713286
0.0686091
0.0658125
0.0629393
0.0599905
0.0569696
0.0538769
0.0507138
0.0474827
0.0441878
0.0408344
0.0374295
0.0339824
0.0305057
0.0270173
0.0235427
0.0201183
0.0168013
0.0136614
0.0107947
0.00830747
0.00627818
0.00469691
0.00342219
0.00219336
0.000720726
0.118623
0.118543
0.118383
0.118144
0.117826
0.117428
0.116951
0.116395
0.11576
0.115047
0.114256
0.113387
0.11244
0.111416
0.110314
0.109136
0.107881
0.10655
0.105141
0.103657
0.102096
0.100459
0.0987451
0.0969547
0.0950875
0.0931433
0.0911217
0.0890227
0.0868457
0.0845906
0.0822575
0.0798467
0.0773571
0.0747887
0.0721412
0.0694147
0.0666095
0.0637261
0.0607654
0.0577284
0.0546151
0.0514289
0.0481734
0.0448525
0.0414712
0.0380364
0.0345574
0.0310466
0.0275215
0.0240059
0.0205339
0.0171495
0.0139287
0.0109646
0.00837091
0.00624703
0.00461355
0.00334655
0.00217191
0.000719114
0.11934
0.119261
0.119103
0.118866
0.11855
0.118155
0.117681
0.117129
0.116499
0.115791
0.115005
0.114142
0.113201
0.112183
0.111089
0.109917
0.108669
0.107345
0.105944
0.104467
0.102913
0.101282
0.0995751
0.097791
0.0959297
0.0939908
0.0919741
0.0898793
0.0877058
0.0854533
0.0831221
0.080712
0.0782222
0.0756522
0.073002
0.0702713
0.0674603
0.0645694
0.0615992
0.0585506
0.0554272
0.0522294
0.0489594
0.0456209
0.042219
0.03876
0.0352528
0.0317089
0.0281438
0.0245793
0.0210459
0.0175884
0.0142776
0.0112015
0.00848112
0.00623993
0.00453328
0.00326083
0.00214395
0.000716055
0.120049
0.119971
0.119814
0.119579
0.119266
0.118875
0.118406
0.11786
0.117235
0.116534
0.115755
0.114899
0.113966
0.112957
0.111871
0.110708
0.10947
0.108154
0.106762
0.105294
0.103749
0.102127
0.100429
0.0986524
0.0967984
0.0948663
0.0928557
0.0907661
0.088597
0.086348
0.084019
0.0816102
0.0791202
0.0765486
0.073895
0.0711592
0.068341
0.0654407
0.0624586
0.0593955
0.0562525
0.0530315
0.0497352
0.0463672
0.0429326
0.039438
0.0358921
0.0323068
0.0286976
0.0250857
0.0215002
0.0179824
0.0145902
0.0114162
0.00857981
0.00621903
0.00442481
0.00313303
0.00206677
0.000711005
0.120756
0.120678
0.120522
0.120289
0.119978
0.11959
0.119125
0.118584
0.117966
0.117272
0.116501
0.115655
0.114733
0.113735
0.11266
0.111509
0.110282
0.108978
0.107599
0.106142
0.104609
0.102999
0.101311
0.099545
0.097701
0.0957782
0.0937761
0.0916942
0.0895318
0.0872884
0.0849641
0.0825589
0.0800711
0.0775001
0.0748455
0.0721069
0.0692839
0.0663766
0.0633851
0.060311
0.057154
0.0539158
0.0505987
0.0472059
0.0437421
0.0402133
0.0366281
0.0329976
0.029337
0.0256667
0.0220148
0.018421
0.0149381
0.0116621
0.00870506
0.00621433
0.0043175
0.00299626
0.00198458
0.000705579
0.121432
0.121357
0.121205
0.120977
0.120674
0.120293
0.119837
0.119304
0.118696
0.118011
0.117251
0.116415
0.115503
0.114517
0.113456
0.112319
0.111106
0.109818
0.108454
0.107013
0.105495
0.1039
0.102226
0.100474
0.0986426
0.0967321
0.0947413
0.0926698
0.0905167
0.0882813
0.0859638
0.083564
0.08108
0.078511
0.0758565
0.0731158
0.0702887
0.0673747
0.0643739
0.061285
0.0581099
0.0548497
0.0515062
0.0480822
0.0445818
0.0410108
0.0373774
0.0336928
0.0299721
0.0262359
0.0225124
0.0188404
0.0152749
0.0118932
0.00881593
0.00619389
0.00417905
0.00280697
0.00184777
0.000698286
0.122054
0.12198
0.121831
0.121609
0.121312
0.120943
0.1205
0.119984
0.119393
0.118729
0.117989
0.117174
0.116282
0.115313
0.114269
0.11315
0.111954
0.110682
0.109335
0.107912
0.106412
0.104834
0.103178
0.101443
0.0996293
0.0977349
0.0957597
0.0937028
0.091563
0.0893394
0.0870319
0.0846406
0.0821631
0.0795988
0.0769469
0.0742065
0.0713771
0.0684584
0.0654508
0.0623528
0.0591647
0.0558871
0.0525215
0.0490699
0.0455357
0.0419238
0.0382415
0.0344992
0.0307113
0.0268979
0.0230871
0.0193177
0.0156444
0.0121361
0.00893229
0.00617738
0.00404012
0.00260632
0.00168916
0.000693378
0.122628
0.122556
0.122414
0.1222
0.121914
0.121557
0.121126
0.120624
0.120048
0.1194
0.118679
0.117885
0.117018
0.116076
0.115061
0.113973
0.112809
0.111568
0.110249
0.108852
0.107376
0.105821
0.104188
0.102475
0.100681
0.0988062
0.0968485
0.0948079
0.092683
0.090473
0.088178
0.0857977
0.0833295
0.0807727
0.0781262
0.0753891
0.0725612
0.0696412
0.0666263
0.0635177
0.0603152
0.0570193
0.0536303
0.0501497
0.0465797
0.0429242
0.0391893
0.0353844
0.0315229
0.0276247
0.0237178
0.0198423
0.0160543
0.0124333
0.00906721
0.00615547
0.00388225
0.00236962
0.00149159
0.000691336
0.123093
0.123024
0.122886
0.122679
0.122403
0.122058
0.121643
0.121159
0.120606
0.119984
0.119291
0.118528
0.117693
0.116785
0.115802
0.114745
0.113614
0.112407
0.111125
0.109766
0.108328
0.106811
0.105216
0.103541
0.101784
0.0999426
0.098016
0.0960019
0.0939003
0.0917108
0.0894337
0.0870688
0.0846137
0.0820674
0.0794287
0.0766963
0.0738684
0.0709443
0.0679249
0.0648097
0.0615976
0.0582881
0.0548807
0.0513756
0.0477739
0.0440778
0.0402916
0.0364227
0.0324824
0.0284884
0.0244674
0.0204591
0.0165218
0.0127397
0.00922771
0.00613782
0.00372226
0.00213704
0.00127208
0.000696091
0.1236
0.123532
0.123395
0.12319
0.122916
0.122574
0.122163
0.121684
0.121137
0.120522
0.119838
0.119088
0.118271
0.117391
0.116443
0.115425
0.114337
0.113176
0.111941
0.110631
0.109243
0.107773
0.106221
0.104587
0.102869
0.101068
0.0991797
0.097204
0.0951385
0.0929827
0.0907379
0.0884022
0.0859729
0.0834481
0.0808265
0.0781073
0.0752902
0.0723749
0.0693604
0.0662454
0.0630289
0.0597099
0.0562875
0.052761
0.0491306
0.045397
0.0415627
0.0376327
0.0336156
0.029526
0.0253875
0.0212376
0.0171338
0.0131632
0.00945381
0.00617396
0.00358148
0.00194011
0.00110991
0.00071011
0.123921
0.123858
0.123732
0.123543
0.123291
0.122975
0.122595
0.12215
0.12164
0.121062
0.120417
0.119704
0.11892
0.118063
0.117136
0.116136
0.115065
0.113922
0.112708
0.111424
0.110071
0.108648
0.107151
0.105576
0.10392
0.102182
0.100359
0.0984474
0.0964448
0.0943458
0.0921503
0.0898585
0.0874688
0.0849793
0.0823878
0.0796924
0.0768927
0.0739925
0.07099
0.0678833
0.0646706
0.0613505
0.0579215
0.0543825
0.0507322
0.0469701
0.0430965
0.0391136
0.0350263
0.0308448
0.0265875
0.0222871
0.017998
0.0138095
0.00984731
0.00632067
0.00351564
0.0018008
0.00101135
0.000730127
0.123999
0.12394
0.123823
0.123647
0.123412
0.123118
0.122764
0.122349
0.121874
0.121338
0.120739
0.120077
0.11935
0.118558
0.117698
0.11677
0.11577
0.114698
0.113551
0.112327
0.111022
0.109635
0.108166
0.106615
0.104982
0.103266
0.101467
0.0995859
0.0976256
0.0955846
0.0934565
0.0912361
0.08892
0.0865056
0.0839902
0.0813695
0.0786364
0.0757862
0.0728216
0.0697436
0.066552
0.0632457
0.0598235
0.0562839
0.0526256
0.0488469
0.0449468
0.0409249
0.0367825
0.0325246
0.028162
0.0237169
0.0192309
0.014778
0.0105029
0.00667205
0.00359495
0.0017295
0.00093458
0.000758879
0.123792
0.123738
0.12363
0.123468
0.123251
0.122979
0.122651
0.122268
0.121828
0.121331
0.120775
0.12016
0.119485
0.118748
0.117949
0.117085
0.116155
0.115158
0.114092
0.112956
0.111746
0.110462
0.109099
0.107657
0.106131
0.104518
0.102815
0.101018
0.0991232
0.0971273
0.0950314
0.0928352
0.0905387
0.0881417
0.085645
0.0830515
0.080366
0.0775825
0.0746912
0.0716865
0.0685643
0.0653212
0.061954
0.0584592
0.0548326
0.0510695
0.0471647
0.0431135
0.0389125
0.0345616
0.0300682
0.0254524
0.0207556
0.0160588
0.0114932
0.00726871
0.00380858
0.00171155
0.000875827
0.000809541
0.12319
0.123141
0.123042
0.122894
0.122696
0.122448
0.122149
0.121799
0.121396
0.120941
0.120431
0.119867
0.119246
0.118568
0.11783
0.117032
0.116172
0.115249
0.11426
0.113204
0.112079
0.110883
0.109615
0.108271
0.106849
0.105348
0.103765
0.102097
0.100341
0.0984934
0.0965516
0.094511
0.0923669
0.0901136
0.0877458
0.0852593
0.082647
0.0799072
0.0770405
0.0740464
0.0709237
0.0676712
0.0642869
0.0607686
0.0571136
0.0533185
0.0493789
0.0452895
0.0410435
0.036633
0.032052
0.0273034
0.022411
0.0174239
0.0124665
0.00781668
0.0040182
0.00170715
0.000850279
0.000863234
0.122083
0.122038
0.121948
0.121813
0.121633
0.121407
0.121134
0.120814
0.120446
0.12003
0.119563
0.119046
0.118477
0.117854
0.117176
0.116442
0.11565
0.114797
0.113884
0.112906
0.111863
0.110753
0.109573
0.108322
0.106996
0.105594
0.104113
0.102551
0.100905
0.0991736
0.0973537
0.0954425
0.0934375
0.0913359
0.0891342
0.0868287
0.0844181
0.0818968
0.0792601
0.0765025
0.0736176
0.0705982
0.0674357
0.06412
0.0606395
0.0569812
0.0531322
0.0490838
0.044826
0.0403445
0.0356233
0.030654
0.025453
0.02007
0.0144727
0.0090096
0.00458834
0.00181908
0.000867262
0.000878607
0.120305
0.120264
0.120182
0.120059
0.119895
0.119688
0.119439
0.119147
0.118811
0.118431
0.118005
0.117532
0.117011
0.11644
0.115818
0.115144
0.114416
0.113632
0.112791
0.111889
0.110927
0.1099
0.108808
0.107647
0.106416
0.105111
0.103731
0.102272
0.100732
0.0991071
0.0973957
0.0955945
0.0937016
0.0917139
0.0896257
0.0874364
0.0851439
0.0827461
0.0802415
0.0776292
0.0749084
0.0720788
0.0691391
0.0660863
0.0629122
0.0595971
0.0560977
0.0524759
0.0487815
0.045048
0.0412906
0.0374861
0.0335225
0.0291595
0.0244526
0.0194133
0.0133912
0.0100228
0.00333238
0.0007474
0.117946
0.117902
0.117814
0.117682
0.117504
0.117282
0.117013
0.116697
0.116334
0.115922
0.115461
0.114947
0.114381
0.113759
0.113082
0.112345
0.111548
0.110688
0.109762
0.108768
0.107703
0.106564
0.105348
0.104051
0.10267
0.1012
0.0996373
0.0979794
0.0962191
0.0943512
0.0923717
0.0902751
0.0880554
0.0857068
0.0832232
0.0805988
0.0778281
0.0749057
0.0718275
0.0685909
0.065196
0.061647
0.0579549
0.0541408
0.0502422
0.0463214
0.0424777
0.0386683
0.0348603
0.0310387
0.027202
0.0233482
0.0195035
0.0157215
0.012057
0.00866044
0.00545073
0.00280888
0.00116569
0.000724526
0.114934
0.11489
0.1148
0.114666
0.114487
0.114261
0.113989
0.11367
0.113302
0.112884
0.112416
0.111895
0.11132
0.110689
0.11
0.109252
0.108441
0.107565
0.106623
0.105611
0.104526
0.103366
0.102129
0.100809
0.0994033
0.097909
0.0963223
0.0946392
0.0928559
0.0909684
0.0889733
0.0868666
0.0846444
0.0823029
0.079839
0.0772499
0.0745334
0.0716878
0.0687125
0.0656077
0.0623745
0.0590154
0.0555337
0.0519335
0.0482204
0.0444015
0.0404892
0.0365087
0.0325263
0.0286007
0.0247708
0.0210686
0.0175454
0.0142329
0.0111374
0.00815753
0.00529619
0.00285097
0.00126702
0.000723936
0.111241
0.111194
0.1111
0.110958
0.110768
0.11053
0.110242
0.109905
0.109516
0.109074
0.108579
0.108028
0.10742
0.106752
0.106023
0.10523
0.104371
0.103444
0.102445
0.101372
0.100222
0.0989919
0.0976782
0.0962774
0.0947858
0.0931996
0.0915151
0.0897281
0.0878348
0.0858311
0.0837139
0.0814792
0.0791236
0.0766442
0.0740386
0.0713054
0.0684446
0.0654572
0.0623465
0.0591184
0.0557818
0.0523499
0.0488406
0.0452775
0.0416905
0.0381159
0.0345949
0.0311714
0.0278475
0.0246379
0.0215724
0.0186785
0.0159092
0.0132015
0.0104887
0.00777729
0.00513309
0.00284462
0.0012894
0.000716416
0.107233
0.107185
0.107088
0.106943
0.106749
0.106505
0.106211
0.105866
0.105469
0.105019
0.104514
0.103953
0.103334
0.102655
0.101914
0.101111
0.100241
0.0993033
0.0982953
0.0972144
0.0960579
0.094823
0.0935069
0.0921067
0.0906191
0.0890412
0.0873699
0.0856023
0.0837354
0.0817667
0.0796939
0.0775151
0.0752282
0.0728322
0.0703267
0.0677123
0.0649904
0.0621638
0.0592366
0.056215
0.0531068
0.0499226
0.0466754
0.0433814
0.0400597
0.0367327
0.0334257
0.0301666
0.0269853
0.0239058
0.0209389
0.0180959
0.0153889
0.0128047
0.010309
0.00781986
0.0053138
0.0029943
0.00135179
0.000715946
0.102935
0.102885
0.102786
0.102638
0.102439
0.102189
0.101888
0.101536
0.101129
0.100669
0.100154
0.0995811
0.0989504
0.0982596
0.0975072
0.0966913
0.09581
0.0948611
0.0938425
0.0927518
0.0915865
0.0903441
0.0890217
0.0876167
0.0861262
0.0845474
0.0828774
0.0811135
0.079253
0.0772935
0.0752334
0.0730709
0.0708045
0.0684334
0.0659579
0.0633791
0.0606992
0.057922
0.0550531
0.0521003
0.0490741
0.045988
0.0428591
0.039708
0.0365596
0.0334423
0.030387
0.0274258
0.0245886
0.0218994
0.0193726
0.0169933
0.0147096
0.0124546
0.0101639
0.00780779
0.0054185
0.00316532
0.00144305
0.000713912
0.0986185
0.0985688
0.0984692
0.0983196
0.0981196
0.0978689
0.0975668
0.0972128
0.0968062
0.0963458
0.0958307
0.0952598
0.0946318
0.0939453
0.0931991
0.0923914
0.0915206
0.0905851
0.0895827
0.0885117
0.08737
0.0861554
0.0848658
0.0834987
0.0820519
0.0805231
0.0789099
0.0772104
0.0754227
0.073545
0.0715764
0.0695159
0.0673626
0.0651166
0.0627786
0.0603503
0.0578341
0.055234
0.0525552
0.0498049
0.046992
0.0441281
0.0412272
0.0383061
0.0353842
0.0324831
0.0296262
0.0268366
0.0241351
0.0215372
0.0190499
0.0166815
0.0144382
0.0122942
0.0101803
0.00798673
0.00563273
0.00332051
0.00151943
0.000714935
0.094384
0.0943343
0.0942348
0.0940854
0.0938859
0.0936359
0.093335
0.0929832
0.0925801
0.0921242
0.0916145
0.0910502
0.0904305
0.0897543
0.0890204
0.0882274
0.087374
0.0864585
0.0854793
0.0844346
0.0833228
0.0821419
0.0808898
0.0795645
0.0781639
0.0766858
0.0751282
0.0734892
0.0717668
0.0699595
0.0680661
0.0660853
0.0640163
0.0618588
0.0596132
0.057281
0.0548644
0.0523672
0.0497945
0.0471534
0.044453
0.0417049
0.0389236
0.0361267
0.0333355
0.0305745
0.027871
0.0252537
0.0227508
0.0203859
0.0181731
0.0160986
0.0141139
0.0121554
0.0101719
0.00809043
0.00587029
0.00359756
0.0016567
0.000716204
0.0903516
0.0903026
0.0902047
0.0900577
0.0898615
0.0896156
0.0893198
0.0889738
0.0885771
0.0881294
0.0876301
0.0870783
0.0864733
0.0858141
0.0850998
0.0843293
0.0835016
0.0826154
0.0816696
0.0806623
0.0795922
0.0784573
0.0772562
0.075987
0.0746479
0.0732372
0.0717531
0.0701941
0.0685584
0.0668448
0.0650519
0.0631788
0.0612246
0.0591892
0.0570731
0.0548774
0.0526044
0.0502575
0.0478415
0.0453627
0.0428295
0.0402521
0.0376435
0.035019
0.0323964
0.0297957
0.0272381
0.0247456
0.0223382
0.0200327
0.0178385
0.0157676
0.0138267
0.0119883
0.0101576
0.00822791
0.00608122
0.00376218
0.00175724
0.000717185
0.0865952
0.0865471
0.086451
0.0863068
0.0861144
0.0858736
0.0855842
0.085246
0.0848587
0.084422
0.0839354
0.0833984
0.0828105
0.0821711
0.0814794
0.0807346
0.0799357
0.0790817
0.0781715
0.0772038
0.0761772
0.0750901
0.0739409
0.072728
0.0714499
0.0701047
0.0686908
0.0672064
0.0656499
0.0640197
0.0623145
0.060533
0.0586743
0.0567378
0.0547234
0.0526318
0.0504646
0.0482244
0.0459152
0.0435427
0.0411142
0.0386395
0.0361312
0.0336046
0.0310786
0.0285752
0.0261194
0.0237383
0.0214587
0.0193039
0.0172859
0.0154064
0.013624
0.0118864
0.0101449
0.00830873
0.00628107
0.00404557
0.00191471
0.000715061
0.0831552
0.083108
0.0830139
0.0828727
0.0826845
0.0824492
0.0821667
0.0818368
0.0814593
0.0810341
0.0805609
0.0800393
0.079469
0.0788495
0.0781804
0.077461
0.0766906
0.0758684
0.0749935
0.0740646
0.0730808
0.0720406
0.0709426
0.0697854
0.0685675
0.0672871
0.0659428
0.0645328
0.0630555
0.0615094
0.0598929
0.0582049
0.056444
0.0546098
0.052702
0.0507208
0.0486678
0.0465452
0.0443567
0.0421072
0.0398039
0.0374556
0.035074
0.0326727
0.0302685
0.0278802
0.0255287
0.0232361
0.0210245
0.018912
0.0169166
0.0150435
0.0133025
0.0116697
0.0100576
0.00837061
0.00645296
0.00421543
0.00202241
0.000714619
0.0800618
0.0800157
0.0799235
0.0797855
0.0796017
0.0793719
0.079096
0.078774
0.0784058
0.0779915
0.077531
0.0770239
0.0764702
0.0758695
0.0752214
0.0745257
0.0737816
0.0729887
0.072146
0.0712527
0.0703079
0.0693103
0.0682587
0.0671519
0.0659883
0.0647663
0.0634843
0.0621405
0.0607332
0.0592608
0.0577216
0.0561142
0.0544369
0.0526889
0.0508694
0.0489783
0.0470164
0.0449852
0.0428876
0.040728
0.0385123
0.0362489
0.0339486
0.0316254
0.0292963
0.0269816
0.0247049
0.0224911
0.0203643
0.0183549
0.0164763
0.0147336
0.0131039
0.0115491
0.0100068
0.00840579
0.00661419
0.00448679
0.00220796
0.000711696
0.0773129
0.0772676
0.0771772
0.0770417
0.0768611
0.0766356
0.0763651
0.0760498
0.0756896
0.0752846
0.0748349
0.0743404
0.073801
0.0732164
0.0725865
0.0719109
0.0711893
0.0704212
0.0696061
0.0687431
0.0678315
0.0668703
0.0658584
0.0647947
0.0636778
0.0625059
0.0612776
0.0599911
0.0586447
0.0572366
0.0557651
0.0542287
0.0526259
0.0509553
0.0492161
0.0474079
0.0455313
0.0435877
0.0415793
0.0395102
0.0373861
0.0352148
0.0330065
0.0307741
0.0285331
0.026302
0.0241017
0.0219518
0.0198812
0.0179087
0.0160491
0.0143123
0.0127108
0.0112306
0.00982358
0.00836548
0.00669687
0.00464601
0.00234139
0.000709656
0.0749035
0.0748589
0.0747698
0.0746364
0.0744587
0.0742366
0.0739704
0.0736602
0.0733062
0.0729087
0.0724675
0.0719828
0.0714547
0.070883
0.0702678
0.0696087
0.0689055
0.0681576
0.0673649
0.0665266
0.0656422
0.0647107
0.0637312
0.0627025
0.0616234
0.0604924
0.0593082
0.058069
0.0567729
0.0554182
0.0540031
0.0525259
0.0509847
0.049378
0.0477047
0.0459641
0.0441563
0.0422821
0.0403434
0.0383435
0.0362876
0.0341827
0.0320385
0.0298677
0.0276861
0.0255127
0.0233666
0.0212804
0.0192778
0.0173813
0.015611
0.0139743
0.0124611
0.0110444
0.00968804
0.00830303
0.00676169
0.00487702
0.00255168
0.000704061
0.072814
0.0727698
0.0726815
0.0725493
0.0723733
0.0721536
0.0718905
0.071584
0.0712344
0.0708419
0.0704066
0.0699288
0.0694086
0.068846
0.0682411
0.0675936
0.0669036
0.0661707
0.0653945
0.0645745
0.0637101
0.0628006
0.0618452
0.0608428
0.0597923
0.0586923
0.0575415
0.0563383
0.055081
0.0537676
0.0523964
0.0509656
0.0494731
0.0479176
0.0462976
0.0446124
0.0428618
0.0410466
0.0391685
0.0372307
0.0352381
0.0331977
0.0311188
0.0290133
0.0268959
0.0247811
0.0226965
0.0206636
0.0187037
0.016838
0.0150815
0.0134469
0.0119493
0.0105926
0.00934484
0.00811127
0.00673239
0.00498983
0.00270902
0.000699246
0.071024
0.07098
0.0708922
0.0707609
0.0705859
0.0703675
0.0701061
0.0698016
0.0694545
0.069065
0.0686333
0.0681597
0.0676444
0.0670875
0.0664891
0.0658491
0.0651675
0.0644439
0.0636782
0.0628701
0.0620191
0.0611245
0.0601857
0.0592015
0.0581709
0.0570928
0.0559658
0.0547884
0.0535589
0.0522755
0.0509363
0.0495395
0.0480833
0.046566
0.044986
0.0433424
0.0416348
0.0398636
0.0380302
0.0361375
0.0341902
0.032195
0.0301613
0.0281009
0.0260252
0.0239577
0.0219223
0.0199399
0.0180373
0.0162422
0.0145737
0.013027
0.0116021
0.0102981
0.0090784
0.00789034
0.00662043
0.00507533
0.00290047
0.00068905
0.0695085
0.0694645
0.0693768
0.0692455
0.0690707
0.0688527
0.0685915
0.0682875
0.067941
0.0675524
0.0671219
0.0666497
0.0661363
0.0655817
0.064986
0.0643493
0.0636714
0.0629525
0.0621921
0.0613899
0.0605457
0.0596587
0.0587286
0.0577542
0.0567347
0.0556688
0.0545553
0.0533927
0.0521794
0.0509138
0.0495941
0.0482183
0.0467846
0.0452914
0.0437374
0.0421214
0.0404428
0.0387021
0.0369007
0.0350415
0.0331292
0.031171
0.0291762
0.0271555
0.0251208
0.0230987
0.0211068
0.0191656
0.0172961
0.015516
0.01385
0.0123179
0.0109395
0.00968274
0.0085272
0.00744294
0.00633477
0.00500386
0.00303245
0.000679969
0.068242
0.0681979
0.0681101
0.0679784
0.067803
0.0675841
0.0673219
0.067017
0.0666695
0.0662798
0.0658484
0.0653754
0.0648613
0.0643061
0.0637099
0.0630729
0.062395
0.0616762
0.0609161
0.0601148
0.0592717
0.0583865
0.0574584
0.0564867
0.0554704
0.0544083
0.0532994
0.0521424
0.0509356
0.0496774
0.048366
0.0469997
0.0455765
0.0440947
0.0425531
0.0409506
0.0392868
0.0375619
0.0357772
0.0339356
0.0320419
0.0301035
0.0281307
0.0261323
0.0241239
0.022133
0.0201777
0.0182835
0.0164744
0.0147714
0.0131859
0.0117448
0.0104097
0.00917425
0.008039
0.00699474
0.00598814
0.00487454
0.00315381
0.000660271
0.0671985
0.067154
0.0670653
0.0669326
0.0667561
0.0665358
0.066272
0.065965
0.0656153
0.0652233
0.0647892
0.0643134
0.0637962
0.0632376
0.062638
0.0619974
0.061316
0.0605936
0.05983
0.0590249
0.0581781
0.057289
0.056357
0.0553812
0.0543609
0.0532949
0.052182
0.0510211
0.0498106
0.048549
0.0472343
0.0458648
0.0444386
0.0429543
0.0414105
0.0398063
0.0381413
0.0364158
0.0346314
0.0327913
0.0309005
0.0289673
0.0270039
0.0250212
0.0230296
0.0210595
0.0191317
0.0172699
0.0154947
0.0138163
0.0122813
0.010873
0.00957759
0.00837091
0.00725691
0.00623101
0.00527426
0.00435197
0.00304769
0.000628635
0.0663505
0.0663056
0.0662161
0.066082
0.0659036
0.065681
0.0654144
0.0651041
0.0647506
0.0643543
0.0639155
0.0634345
0.0629118
0.0623475
0.0617417
0.0610946
0.0604061
0.0596763
0.0589049
0.0580916
0.057236
0.0563376
0.0553957
0.0544096
0.0533784
0.0523009
0.0511759
0.0500023
0.0487785
0.047503
0.0461738
0.0447888
0.0433465
0.0418454
0.0402841
0.0386618
0.0369783
0.0352339
0.0334306
0.0315715
0.029662
0.0277094
0.0257236
0.0237226
0.0217193
0.0197445
0.017836
0.0160125
0.0143009
0.012728
0.0112879
0.00997089
0.00878213
0.00766082
0.00660221
0.00557512
0.00462939
0.0038013
0.00274812
0.000569684
0.065645
0.0655996
0.065509
0.0653734
0.0651929
0.0649675
0.0646977
0.0643838
0.0640261
0.0636252
0.0631814
0.062695
0.0621662
0.0615953
0.0609823
0.0603274
0.0596307
0.058892
0.0581112
0.0572879
0.0564216
0.0555114
0.0545567
0.0535566
0.0525102
0.0514163
0.0502737
0.0490808
0.0478367
0.0465398
0.045187
0.0437766
0.042307
0.0407766
0.039184
0.0375284
0.0358095
0.0340281
0.0321867
0.0302893
0.0283423
0.0263547
0.0243405
0.0223279
0.0203246
0.0183583
0.0164585
0.0146508
0.0129617
0.0114108
0.00999985
0.00873845
0.00758686
0.00648022
0.00541714
0.00434206
0.00327989
0.00226312
0.00123635
0.000537888
0.0650696
0.065027
0.0649419
0.0648145
0.0646449
0.0644334
0.0641801
0.0638854
0.0635497
0.0631732
0.0627564
0.0622997
0.0618034
0.0612676
0.0606924
0.060078
0.0594246
0.0587322
0.058001
0.0572306
0.0564208
0.0555708
0.0546792
0.0537465
0.0527727
0.0517566
0.0506965
0.0495901
0.0484346
0.0472279
0.04597
0.0446601
0.0432963
0.0418769
0.0403998
0.0388635
0.0372672
0.0356106
0.0338944
0.0321204
0.0302904
0.0284019
0.026462
0.0244813
0.0224775
0.0204804
0.0185087
0.0165932
0.0147763
0.0130853
0.0115291
0.0101109
0.00882978
0.00767497
0.00657311
0.00544346
0.00425246
0.00298505
0.00175727
0.000641621
0.0646414
0.0645998
0.064517
0.0643929
0.0642275
0.064021
0.0637736
0.0634857
0.0631574
0.0627892
0.0623812
0.0619339
0.0614475
0.0609219
0.0603572
0.0597533
0.05911
0.058428
0.0577072
0.0569475
0.0561487
0.0553109
0.0544347
0.0535179
0.0525587
0.051556
0.0505087
0.0494155
0.0482752
0.0470863
0.0458469
0.0445555
0.0432107
0.0418103
0.0403526
0.0388362
0.0372605
0.0356251
0.0339306
0.0321797
0.0303774
0.0285364
0.0266604
0.0247543
0.0228296
0.0209016
0.018988
0.0170983
0.0152498
0.01347
0.0117825
0.0102206
0.00881489
0.00755529
0.00640235
0.00529097
0.00421448
0.00309291
0.00186995
0.000668717
0.0643367
0.0642965
0.0642163
0.0640964
0.0639369
0.0637378
0.0634992
0.0632214
0.0629046
0.0625489
0.0621546
0.0617217
0.0612502
0.0607407
0.0601937
0.0596096
0.0589892
0.0583321
0.0576372
0.0569039
0.0561319
0.0553208
0.0544702
0.0535792
0.0526473
0.0516733
0.0506563
0.0495951
0.0484883
0.0473343
0.0461313
0.0448776
0.0435717
0.0422111
0.0407943
0.0393195
0.0377858
0.036193
0.0345425
0.0328344
0.0310674
0.0292411
0.0273658
0.0254533
0.0235106
0.02155
0.0195885
0.0176581
0.0157672
0.0139508
0.0122382
0.0106425
0.00916504
0.007806
0.00656284
0.00539377
0.0042624
0.00312849
0.00188051
0.000695766
0.0641068
0.064068
0.0639907
0.0638749
0.0637209
0.0635284
0.0632978
0.0630292
0.0627228
0.0623787
0.0619973
0.0615787
0.0611228
0.0606298
0.0600995
0.0595316
0.0589262
0.0582836
0.0576029
0.0568841
0.0561271
0.0553314
0.0544964
0.0536217
0.0527063
0.0517494
0.0507501
0.0497073
0.0486197
0.047486
0.0463043
0.0450715
0.0437839
0.0424409
0.0410418
0.0395848
0.0380675
0.0364881
0.0348477
0.0331483
0.0313905
0.0295812
0.0277235
0.0258227
0.0238857
0.0219248
0.0199563
0.0180029
0.0160927
0.0142428
0.0124851
0.0108399
0.00932973
0.00795665
0.00669461
0.00551507
0.00436056
0.00320698
0.00196149
0.000713978
0.0639844
0.0639466
0.0638712
0.0637582
0.0636078
0.0634197
0.0631942
0.0629314
0.0626315
0.0622948
0.0619213
0.0615113
0.0610649
0.060582
0.0600626
0.0595061
0.0589113
0.0582766
0.0576035
0.0568926
0.0561441
0.0553575
0.0545322
0.0536675
0.0527629
0.0518174
0.0508301
0.0498
0.0487259
0.0476066
0.0464411
0.0452285
0.0439671
0.0426553
0.041292
0.0398748
0.0384006
0.0368654
0.035267
0.0336018
0.031873
0.0300831
0.028236
0.026338
0.0243963
0.0224234
0.0204365
0.0184545
0.0165095
0.014606
0.0127838
0.0110778
0.00950391
0.00807098
0.0067685
0.00556745
0.00439817
0.00323198
0.00196765
0.000728414
0.0639256
0.0638889
0.0638156
0.0637049
0.0635567
0.0633712
0.0631487
0.0628894
0.0625934
0.062261
0.0618924
0.0614875
0.0610466
0.0605697
0.0600569
0.0595087
0.0589255
0.0583078
0.0576546
0.0569648
0.0562375
0.0554718
0.0546666
0.0538211
0.0529341
0.0520044
0.051031
0.0500125
0.0489475
0.0478347
0.0466729
0.0454616
0.0442017
0.0428929
0.0415306
0.0401133
0.0386403
0.03711
0.0355206
0.0338687
0.0321536
0.0303758
0.0285356
0.0266365
0.0246911
0.0227107
0.0207116
0.018717
0.0167554
0.0148526
0.0130278
0.0113024
0.00969926
0.00822626
0.00688565
0.00565073
0.00446501
0.00327589
0.00201881
0.000741468
0.0638477
0.0638112
0.0637386
0.06363
0.0634858
0.0633058
0.0630901
0.0628388
0.062552
0.0622298
0.0618722
0.0614793
0.0610509
0.0605872
0.0600879
0.059553
0.0589822
0.0583752
0.0577317
0.0570515
0.056334
0.0555787
0.0547849
0.053952
0.0530789
0.0521648
0.0512087
0.0502094
0.0491652
0.0480745
0.0469349
0.0457436
0.0444971
0.0431928
0.0418311
0.040412
0.0389372
0.0374089
0.0358207
0.0341713
0.0324614
0.0306926
0.028868
0.0269936
0.0250706
0.023106
0.0211084
0.0190954
0.0170933
0.0151297
0.0132324
0.0114494
0.00980367
0.00830452
0.00694191
0.00568896
0.0044941
0.00329532
0.00202088
0.000750039
0.0638493
0.063814
0.0637434
0.0636375
0.0634963
0.0633199
0.0631082
0.0628614
0.0625796
0.0622628
0.0619112
0.0615246
0.0611032
0.0606468
0.0601554
0.0596289
0.0590671
0.0584697
0.0578362
0.0571662
0.0564591
0.0557139
0.05493
0.0541065
0.0532422
0.0523364
0.051388
0.0503956
0.0493582
0.0482746
0.0471433
0.0459629
0.0447319
0.043448
0.0421084
0.0407095
0.0392476
0.0377197
0.0361297
0.0344825
0.0327782
0.0310119
0.0291807
0.0272855
0.0253361
0.0233467
0.0213344
0.0193139
0.0173026
0.01534
0.0134445
0.0116486
0.00996974
0.00842995
0.00703108
0.00574947
0.00453701
0.00331767
0.00205653
0.000759975
0.0638659
0.0638313
0.0637619
0.0636579
0.0635192
0.0633458
0.0631379
0.0628954
0.0626186
0.0623072
0.0619614
0.0615812
0.0611665
0.0607174
0.0602336
0.0597151
0.0591614
0.0585723
0.0579473
0.0572858
0.0565872
0.0558509
0.0550761
0.0542619
0.0534073
0.0525114
0.0515728
0.0505904
0.0495627
0.0484881
0.0473649
0.0461912