/*--------------------------------*- C++ -*----------------------------------*\
| =========                 |                                                 |
| \\      /  F ield         | OpenFOAM: The Open Source CFD Toolbox           |
|  \\    /   O peration     | Version:  v1906                                 |
|   \\  /    A nd           | Web:      www.OpenFOAM.com                      |
|    \\/     M anipulation  |                                                 |
\*---------------------------------------------------------------------------*/
FoamFile
{
    version     2.0;
    format      ascii;
    class       volScalarField;
    location    "2.83";
    object      O;
}
// * * * * * * * * * * * * * * * * * * * * * * * * * * * * * * * * * * * * * //

dimensions      [0 0 0 0 0 0 0];


internalField   nonuniform List<scalar> 
26400
(
0.000127417
0.00012763
0.000128057
0.000128697
0.000129548
0.000130609
0.000131879
0.000133356
0.000135038
0.000136922
0.000139005
0.000141284
0.000143756
0.000146417
0.000149262
0.000152286
0.000155485
0.000158851
0.000162378
0.000166057
0.000169879
0.000173833
0.000177906
0.000182083
0.000186346
0.000190673
0.000195038
0.000199409
0.00020375
0.000208011
0.000212136
0.000216163
0.000220073
0.000223837
0.000227418
0.000230765
0.000233867
0.00023669
0.000239187
0.000240819
0.000241621
0.000241615
0.000240821
0.000239247
0.000236887
0.000233723
0.00022971
0.000224773
0.00021878
0.000211503
0.000202531
0.000191081
0.000178423
0.000163419
0.000141906
9.40025e-05
6.6937e-05
4.98887e-05
3.63517e-05
2.74451e-05
0.000125462
0.000125681
0.000126119
0.000126775
0.000127648
0.000128736
0.000130037
0.00013155
0.000133271
0.000135198
0.000137328
0.000139657
0.000142182
0.000144898
0.0001478
0.000150885
0.000154145
0.000157575
0.000161167
0.000164913
0.000168804
0.000172828
0.000176973
0.000181222
0.000185559
0.000189961
0.000194402
0.000198851
0.000203269
0.00020761
0.000211815
0.000215921
0.000219908
0.000223746
0.000227398
0.000230813
0.000233978
0.000236859
0.000239405
0.000241106
0.000241994
0.000242096
0.000241432
0.000240011
0.00023783
0.000234869
0.000231082
0.00022638
0.0002206
0.000213435
0.000204254
0.000193788
0.0001817
0.000166964
0.00014541
9.67555e-05
6.90003e-05
5.13869e-05
3.7619e-05
2.91131e-05
0.000122969
0.000123196
0.000123649
0.000124328
0.00012523
0.000126354
0.000127698
0.000129259
0.000131033
0.000133018
0.000135209
0.000137603
0.000140196
0.000142983
0.000145959
0.000149118
0.000152456
0.000155965
0.000159638
0.000163467
0.000167441
0.000171551
0.000175781
0.000180119
0.000184544
0.000189036
0.000193567
0.000198107
0.000202617
0.00020705
0.000211347
0.000215544
0.000219619
0.000223542
0.000227274
0.000230764
0.000233999
0.000236943
0.000239545
0.000241316
0.00024229
0.000242497
0.000241958
0.000240685
0.000238677
0.000235916
0.000232354
0.000227904
0.000222402
0.00021554
0.000206688
0.000196562
0.000184746
0.000170149
0.000148579
9.94976e-05
7.12185e-05
5.30062e-05
3.89792e-05
3.08099e-05
0.000120213
0.000120449
0.000120921
0.000121628
0.000122567
0.000123735
0.000125129
0.000126746
0.000128582
0.000130633
0.000132895
0.000135362
0.000138031
0.000140896
0.000143952
0.000147193
0.000150614
0.000154207
0.000157965
0.00016188
0.000165941
0.000170138
0.000174457
0.000178883
0.000183399
0.000187981
0.000192603
0.000197235
0.000201836
0.00020636
0.000210748
0.000215034
0.000219194
0.000223199
0.000227008
0.000230567
0.000233865
0.000236863
0.000239507
0.000241335
0.000242382
0.000242681
0.000242253
0.000241113
0.000239262
0.000236679
0.000233317
0.000229082
0.000223804
0.000217182
0.000208678
0.000198846
0.000187134
0.000172339
0.000150397
0.000101828
7.34331e-05
5.46786e-05
4.05072e-05
3.25435e-05
0.000117231
0.000117479
0.000117976
0.000118718
0.000119701
0.000120923
0.000122378
0.000124062
0.00012597
0.000128096
0.000130436
0.000132984
0.000135735
0.000138683
0.000141824
0.000145151
0.000148657
0.000152336
0.00015618
0.000160181
0.000164329
0.000168612
0.000173019
0.000177532
0.000182135
0.000186805
0.000191515
0.000196235
0.000200925
0.000205538
0.000210014
0.000214385
0.000218628
0.000222711
0.000226593
0.000230217
0.000233572
0.000236617
0.000239295
0.000241168
0.000242275
0.000242649
0.000242317
0.000241296
0.000239584
0.000237163
0.000233974
0.000229906
0.000224745
0.000218073
0.000210127
0.000200533
0.000188557
0.000172531
0.000148042
0.000102786
7.53539e-05
5.6346e-05
4.23729e-05
3.43188e-05
0.000114001
0.000114267
0.000114797
0.000115587
0.000116631
0.000117921
0.000119452
0.000121217
0.000123209
0.000125421
0.000127849
0.000130485
0.000133325
0.000136362
0.000139591
0.000143005
0.000146598
0.000150364
0.000154294
0.000158381
0.000162614
0.000166982
0.000171472
0.00017607
0.000180757
0.000185511
0.000190305
0.000195109
0.000199883
0.00020458
0.00020914
0.000213594
0.000217917
0.000222076
0.000226029
0.000229715
0.000233122
0.000236204
0.0002389
0.000240799
0.000241943
0.000242373
0.000242119
0.000241198
0.000239615
0.000237346
0.000234335
0.000230467
0.000225534
0.000219154
0.000211489
0.00020198
0.000189386
0.000170267
0.000132688
0.000101756
7.69261e-05
5.7889e-05
4.42984e-05
3.61288e-05
0.000110465
0.00011076
0.000111345
0.000112211
0.000113343
0.000114729
0.000116358
0.000118222
0.000120312
0.000122623
0.000125147
0.000127879
0.000130813
0.000133942
0.000137262
0.000140765
0.000144446
0.000148298
0.000152313
0.000156484
0.000160799
0.000165249
0.00016982
0.000174498
0.000179264
0.000184097
0.00018897
0.000193853
0.000198706
0.000203481
0.000208122
0.000212655
0.000217057
0.000221295
0.000225324
0.000229081
0.00023255
0.000235673
0.000238358
0.000240246
0.000241395
0.000241853
0.000241652
0.000240814
0.000239339
0.000237201
0.000234335
0.000230605
0.000225753
0.000219838
0.000212609
0.000203534
0.000191365
0.00017262
0.000135288
0.00010421
7.87843e-05
5.9331e-05
4.62622e-05
3.79777e-05
0.000106504
0.000106845
0.000107532
0.000108572
0.00010985
0.000111369
0.000113122
0.000115102
0.000117305
0.000119722
0.00012235
0.000125182
0.000128212
0.000131436
0.000134847
0.000138439
0.000142207
0.000146144
0.000150242
0.000154493
0.000158888
0.000163416
0.000168065
0.000172818
0.000177658
0.000182564
0.000187511
0.000192465
0.00019739
0.000202238
0.000206954
0.000211563
0.000216043
0.000220362
0.000224477
0.000228334
0.000231925
0.000235214
0.000237728
0.000239512
0.00024061
0.00024106
0.000240891
0.000240117
0.000238737
0.000236724
0.000234008
0.000230455
0.000225806
0.000220146
0.00021321
0.000204458
0.000192648
0.000174338
0.000137658
0.000106662
8.06821e-05
6.07689e-05
4.82967e-05
3.98745e-05
0.000103056
0.000103379
0.000104026
0.000105001
0.000106305
0.000107949
0.000109815
0.000111907
0.000114217
0.000116741
0.000119471
0.000122403
0.000125531
0.000128848
0.00013235
0.000136031
0.000139884
0.000143904
0.000148083
0.000152412
0.000156883
0.000161485
0.000166205
0.000171029
0.000175938
0.000180912
0.000185924
0.000190944
0.000195933
0.000200846
0.000205626
0.000210301
0.000214844
0.000219225
0.0002234
0.000227305
0.000230921
0.000234177
0.000236647
0.000238397
0.00023948
0.000239939
0.000239802
0.000239087
0.000237787
0.000235873
0.000233273
0.00022985
0.000225363
0.000219885
0.000213121
0.000204506
0.000192802
0.000174744
0.000139177
0.0001088
8.24964e-05
6.21357e-05
5.03936e-05
4.1815e-05
9.98362e-05
0.000100147
0.000100768
0.000101702
0.000102951
0.000104516
0.000106401
0.000108615
0.000111036
0.00011367
0.000116508
0.000119543
0.00012277
0.000126182
0.000129775
0.000133543
0.00013748
0.00014158
0.000145836
0.00015024
0.000154783
0.000159455
0.000164242
0.000169131
0.000174103
0.000179137
0.000184208
0.000189285
0.000194331
0.000199299
0.000204135
0.000208866
0.00021347
0.000217919
0.000222179
0.000226203
0.000229998
0.000233035
0.000235363
0.000237026
0.000238065
0.000238514
0.000238398
0.000237725
0.000236486
0.000234641
0.0002321
0.000228693
0.000224403
0.000219055
0.000212311
0.000203501
0.000191235
0.000172379
0.000139271
0.000110412
8.41775e-05
6.34217e-05
5.25699e-05
4.38365e-05
9.67401e-05
9.70444e-05
9.76535e-05
9.85677e-05
9.97876e-05
0.000101314
0.000103148
0.000105291
0.000107743
0.000110509
0.000113466
0.000116609
0.000119936
0.000123442
0.000127124
0.000130976
0.000134994
0.000139171
0.000143501
0.000147976
0.000152587
0.000157324
0.000162174
0.000167123
0.000172152
0.00017724
0.000182362
0.000187487
0.000192577
0.000197587
0.000202461
0.000207223
0.000211849
0.000216311
0.000220567
0.000224591
0.000228352
0.000231348
0.000233639
0.000235278
0.000236308
0.000236765
0.000236675
0.000236047
0.000234869
0.0002331
0.000230643
0.00022732
0.00022312
0.000217825
0.000210992
0.00020168
0.000187672
0.000162918
0.000137627
0.00011153
8.56508e-05
6.46015e-05
5.48309e-05
4.59569e-05
9.37004e-05
9.40024e-05
9.46069e-05
9.55139e-05
9.67239e-05
9.82376e-05
0.000100056
0.000102179
0.000104609
0.000107348
0.000110397
0.000113631
0.000117045
0.000120636
0.000124399
0.00012833
0.000132424
0.000136674
0.000141074
0.000145616
0.000150292
0.00015509
0.000159999
0.000165003
0.000170084
0.000175221
0.000180389
0.000185557
0.000190686
0.000195731
0.000200638
0.000205428
0.000210078
0.00021456
0.00021884
0.000222897
0.000226544
0.000229455
0.000231683
0.000233279
0.000234284
0.000234735
0.000234654
0.000234053
0.000232918
0.000231205
0.000228817
0.000225566
0.000221461
0.000216272
0.000209553
0.000200384
0.000186659
0.000162668
0.000138384
0.000112963
8.7079e-05
6.5747e-05
5.71978e-05
4.82325e-05
9.06754e-05
9.0976e-05
9.15775e-05
9.248e-05
9.36834e-05
9.51879e-05
9.69939e-05
9.91017e-05
0.000101512
0.000104225
0.000107243
0.000110566
0.000114066
0.000117741
0.000121584
0.000125591
0.000129758
0.000134079
0.000138546
0.000143152
0.000147889
0.000152745
0.000157708
0.000162764
0.000167893
0.000173075
0.000178284
0.000183489
0.000188651
0.000193726
0.000198659
0.000203464
0.00020812
0.000212596
0.000216854
0.000220867
0.000224451
0.000227303
0.000229479
0.000231032
0.000232005
0.000232435
0.000232348
0.000231753
0.000230637
0.000228954
0.000226601
0.000223383
0.000219309
0.00021412
0.000207319
0.000197949
0.000184072
0.000161527
0.000138751
0.000114294
8.85656e-05
6.69867e-05
5.96657e-05
5.07219e-05
8.76516e-05
8.79512e-05
8.85505e-05
8.94493e-05
9.06475e-05
9.21447e-05
9.39408e-05
9.60355e-05
9.84287e-05
0.00010112
0.00010411
0.000107398
0.000110985
0.000114742
0.000118664
0.000122746
0.000126985
0.000131373
0.000135904
0.000140571
0.000145366
0.000150276
0.000155291
0.000160395
0.000165569
0.000170793
0.000176041
0.00018128
0.000186473
0.000191575
0.000196532
0.000201355
0.000206021
0.000210501
0.000214761
0.000218692
0.000222192
0.000224969
0.00022708
0.000228575
0.0002295
0.000229891
0.000229776
0.000229165
0.000228046
0.00022637
0.000224033
0.000220831
0.000216766
0.000211516
0.000204433
0.000194151
0.000177531
0.00015926
0.000138812
0.000115601
9.02206e-05
6.86978e-05
6.2248e-05
5.34838e-05
8.46271e-05
8.49258e-05
8.55232e-05
8.6419e-05
8.76126e-05
8.91034e-05
9.08906e-05
9.29736e-05
9.53514e-05
9.80231e-05
0.000100988
0.000104245
0.000107793
0.000111631
0.00011563
0.000119784
0.00012409
0.000128542
0.000133133
0.000137856
0.000142703
0.000147663
0.000152725
0.000157874
0.000163091
0.000168356
0.00017364
0.000178913
0.000184137
0.000189264
0.000194243
0.000199077
0.000203739
0.000208202
0.000212426
0.000216307
0.000219743
0.000222455
0.0002245
0.000225931
0.000226794
0.00022713
0.000226966
0.000226315
0.000225168
0.00022348
0.00022115
0.000217984
0.000214002
0.000208895
0.000202035
0.000192108
0.000176117
0.000158766
0.00013937
0.000117132
9.22136e-05
7.08341e-05
6.49382e-05
5.66231e-05
8.15988e-05
8.18968e-05
8.24927e-05
8.3386e-05
8.45759e-05
8.60612e-05
8.78408e-05
8.99133e-05
9.22772e-05
9.49307e-05
9.78719e-05
0.000101099
0.000104609
0.000108401
0.000112472
0.000116694
0.000121061
0.000125568
0.000130211
0.000134982
0.000139873
0.000144877
0.000149981
0.000155171
0.00016043
0.000165735
0.000171059
0.000176369
0.000181627
0.000186786
0.000191794
0.000196645
0.000201313
0.00020577
0.000209952
0.000213781
0.000217158
0.000219805
0.000221781
0.00022314
0.00022393
0.000224191
0.000223954
0.000223236
0.000222028
0.000220293
0.000217934
0.000214766
0.000210827
0.000205828
0.000199183
0.000189663
0.000174499
0.000158232
0.00014011
0.00011915
9.50177e-05
7.35832e-05
6.78221e-05
6.00659e-05
7.85658e-05
7.8863e-05
7.94571e-05
8.03475e-05
8.1533e-05
8.30123e-05
8.47839e-05
8.68457e-05
8.91957e-05
9.18314e-05
9.47499e-05
9.79484e-05
0.000101423
0.000105171
0.000109189
0.000113472
0.000117892
0.000122444
0.000127124
0.000131927
0.000136846
0.000141876
0.000147011
0.000152236
0.000157535
0.000162883
0.000168253
0.00017361
0.000178913
0.000184114
0.000189162
0.000194038
0.000198715
0.000203164
0.000207326
0.000211124
0.000214462
0.000217057
0.000218969
0.000220255
0.000220963
0.000221137
0.000220808
0.000219997
0.000218701
0.000216887
0.000214468
0.000211268
0.000207317
0.000202378
0.000195929
0.000186867
0.000172738
0.000157782
0.000141242
0.000122012
9.91463e-05
7.7126e-05
7.09186e-05
6.37032e-05
7.5532e-05
7.58279e-05
7.64193e-05
7.73055e-05
7.84851e-05
7.99567e-05
8.17182e-05
8.37674e-05
8.61016e-05
8.87177e-05
9.16122e-05
9.4781e-05
9.82196e-05
0.000101923
0.000105886
0.000110103
0.000114568
0.000119154
0.000123855
0.000128667
0.000133585
0.000138597
0.000143746
0.000149006
0.000154352
0.000159756
0.000165186
0.000170605
0.000175971
0.000181235
0.000186337
0.000191248
0.000195943
0.0002004
0.000204561
0.000208353
0.000211682
0.000214249
0.000216117
0.000217341
0.000217972
0.000218054
0.000217622
0.0002167
0.000215291
0.000213375
0.000210893
0.000207714
0.000203595
0.000198631
0.000192342
0.000183753
0.000170742
0.00015718
0.000142404
0.000125322
0.000104427
8.20594e-05
7.43132e-05
6.75047e-05
7.25032e-05
7.27969e-05
7.33841e-05
7.42637e-05
7.54345e-05
7.68949e-05
7.86428e-05
8.06757e-05
8.29907e-05
8.55842e-05
8.84521e-05
9.15895e-05
9.49909e-05
9.86498e-05
0.000102559
0.000106711
0.000111096
0.000115706
0.000120414
0.000125215
0.000130168
0.000135256
0.000140464
0.000145771
0.000151156
0.000156593
0.000162054
0.000167502
0.000172899
0.000178195
0.000183343
0.000188289
0.000193008
0.000197485
0.000201665
0.000205477
0.000208836
0.000211416
0.000213278
0.000214475
0.000215057
0.000215065
0.000214532
0.000213482
0.00021192
0.00020983
0.000207161
0.000203802
0.000199556
0.000194559
0.000188361
0.000180126
0.000168117
0.000155739
0.000142477
0.000127495
0.000109438
8.87333e-05
7.86129e-05
7.16303e-05
6.94906e-05
6.97809e-05
7.03612e-05
7.12306e-05
7.23879e-05
7.38318e-05
7.55602e-05
7.75709e-05
7.9861e-05
8.24271e-05
8.52649e-05
8.83693e-05
9.17341e-05
9.53518e-05
9.92138e-05
0.000103309
0.000107626
0.00011215
0.000116862
0.000121713
0.000126696
0.000131803
0.000137022
0.000142336
0.000147728
0.000153174
0.000158646
0.000164112
0.000169532
0.000174862
0.000180056
0.000185037
0.000189816
0.00019435
0.000198589
0.000202472
0.000205925
0.000208598
0.000210536
0.000211783
0.000212384
0.000212376
0.000211793
0.000210657
0.000208975
0.000206732
0.000203876
0.0002003
0.000195805
0.000190934
0.000184895
0.00017704
0.000166157
0.000154646
0.000142421
0.000129111
0.000114133
9.76837e-05
8.53802e-05
7.65706e-05
6.64879e-05
6.67727e-05
6.7342e-05
6.81951e-05
6.93311e-05
7.0749e-05
7.24475e-05
7.44247e-05
7.66785e-05
7.92062e-05
8.20041e-05
8.5068e-05
8.83924e-05
9.19707e-05
9.5795e-05
9.98561e-05
0.000104143
0.000108642
0.000113293
0.000118088
0.000123021
0.000128083
0.000133261
0.000138542
0.000143908
0.000149336
0.0001548
0.000160271
0.000165712
0.00017108
0.000176339
0.000181386
0.000186235
0.000190844
0.000195162
0.000199125
0.00020266
0.000205672
0.000207888
0.000209363
0.000210146
0.000210282
0.000209812
0.000208765
0.000207164
0.000205014
0.000202302
0.00019898
0.000194954
0.000190056
0.000184881
0.000178366
0.000169958
0.00015904
0.000147945
0.000136716
0.000124967
0.00011285
9.97597e-05
8.15972e-05
6.36552e-05
6.39517e-05
6.45446e-05
6.54336e-05
6.66184e-05
6.80984e-05
6.9873e-05
7.19412e-05
7.43015e-05
7.69518e-05
7.98889e-05
8.3109e-05
8.66065e-05
9.03747e-05
9.44053e-05
9.86878e-05
0.00010321
0.000107895
0.00011274
0.00011774
0.000122886
0.000128169
0.000133576
0.000139088
0.000144685
0.000150341
0.000156026
0.000161702
0.000167324
0.00017284
0.000178197
0.000183362
0.000188282
0.000192907
0.000197171
0.000200995
0.000204284
0.000206672
0.000208226
0.000209006
0.000209068
0.000208458
0.000207212
0.000205354
0.000202893
0.00019982
0.000196102
0.000191679
0.000186423
0.000181705
0.000175755
0.000167481
0.000155361
0.000143666
0.000132457
0.000121697
0.000111016
9.9893e-05
9.34522e-05
8.33686e-05
6.10253e-05
6.13345e-05
6.19532e-05
6.28815e-05
6.41199e-05
6.56686e-05
6.75281e-05
6.96984e-05
7.21791e-05
7.4969e-05
7.80658e-05
8.14657e-05
8.51636e-05
8.9152e-05
9.34213e-05
9.79597e-05
0.000102674
0.000107564
0.000112626
0.000117854
0.000123238
0.000128765
0.000134419
0.000140179
0.00014602
0.000151913
0.00015782
0.000163697
0.000169492
0.000175141
0.000180579
0.000185787
0.000190699
0.000195246
0.000199338
0.000202865
0.000205394
0.000207004
0.000207765
0.000207739
0.00020698
0.000205527
0.000203405
0.000200615
0.000197137
0.000192913
0.000187854
0.000181852
0.000176174
0.00017161
0.000164854
0.000153566
0.000142432
0.000131989
0.000122569
0.000114245
0.000106829
0.000100485
9.72151e-05
8.7767e-05
5.85722e-05
5.88912e-05
5.953e-05
6.04894e-05
6.17707e-05
6.33755e-05
6.53058e-05
6.75634e-05
7.01496e-05
7.30649e-05
7.63087e-05
7.98782e-05
8.37684e-05
8.79717e-05
9.24771e-05
9.71734e-05
0.000102063
0.000107145
0.000112414
0.00011786
0.000123471
0.000129229
0.000135116
0.000141105
0.000147168
0.000153271
0.000159371
0.00016542
0.000171359
0.000177114
0.00018261
0.000187849
0.000192755
0.000197242
0.000201187
0.000204032
0.000205869
0.000206783
0.000206847
0.000206124
0.000204661
0.000202487
0.000199605
0.000195985
0.000191541
0.000186109
0.000179391
0.000172676
0.000166892
0.000163245
0.000156691
0.000144213
0.00013295
0.000123257
0.000115253
0.000108905
0.000104156
0.000101647
0.000101146
9.30135e-05
5.63111e-05
5.66361e-05
5.72872e-05
5.82659e-05
5.95746e-05
6.12167e-05
6.3196e-05
6.55172e-05
6.81846e-05
7.12019e-05
7.45713e-05
7.82924e-05
8.23617e-05
8.67711e-05
9.13903e-05
9.62266e-05
0.000101281
0.00010655
0.000112023
0.000117686
0.00012352
0.000129502
0.000135606
0.000141803
0.000148058
0.000154334
0.000160586
0.000166761
0.000172795
0.00017861
0.000184124
0.000189365
0.00019426
0.000198736
0.00020204
0.000204261
0.000205485
0.000205792
0.000205253
0.000203923
0.000201843
0.000199027
0.000195463
0.000191091
0.000185795
0.000179362
0.000171431
0.000163914
0.000157864
0.00015471
0.000148256
0.000135096
0.000123907
0.000114853
0.000107906
0.000103071
0.000100611
0.0001017
0.000104462
9.92552e-05
5.42627e-05
5.45898e-05
5.52453e-05
5.62311e-05
5.75501e-05
5.92069e-05
6.12078e-05
6.3561e-05
6.62764e-05
6.93629e-05
7.28285e-05
7.66786e-05
8.09125e-05
8.53806e-05
9.00979e-05
9.50707e-05
0.000100297
0.000105767
0.000111463
0.000117359
0.000123427
0.000129634
0.000135947
0.000142331
0.000148746
0.000155151
0.000161503
0.000167749
0.000173823
0.000179644
0.000185116
0.000190278
0.000195019
0.000199186
0.00020209
0.000203867
0.000204626
0.00020446
0.000203439
0.000201613
0.000199009
0.000195627
0.000191427
0.000186316
0.000180123
0.000172585
0.000163374
0.000154875
0.000148202
0.000145275
0.000138636
0.000124554
0.000113426
0.000104769
9.82754e-05
9.40526e-05
9.29038e-05
9.71218e-05
0.000104753
0.000105334
5.24453e-05
5.27727e-05
5.34284e-05
5.44133e-05
5.5729e-05
5.73788e-05
5.9369e-05
6.17121e-05
6.44309e-05
6.75391e-05
7.1055e-05
7.50041e-05
7.92216e-05
8.37322e-05
8.85492e-05
9.36757e-05
9.91054e-05
0.000104821
0.000110791
0.000116965
0.000123298
0.000129748
0.000136272
0.000142826
0.000149364
0.000155842
0.000162222
0.000168463
0.000174517
0.000180313
0.000185772
0.000190957
0.000195804
0.00019936
0.000201747
0.000203069
0.00020341
0.000202839
0.000201406
0.000199142
0.000196055
0.000192116
0.000187254
0.00018132
0.000174015
0.000164753
0.000155109
0.000145696
0.000137555
0.000133037
0.000125419
0.000111439
0.000100633
9.17616e-05
8.44026e-05
7.88146e-05
7.6226e-05
8.00902e-05
9.13609e-05
0.000102099
5.08599e-05
5.11901e-05
5.18502e-05
5.28391e-05
5.41544e-05
5.57917e-05
5.77432e-05
6.00071e-05
6.26807e-05
6.57393e-05
6.91786e-05
7.29964e-05
7.71888e-05
8.17548e-05
8.66941e-05
9.20046e-05
9.76822e-05
0.000103719
0.000110105
0.000116627
0.000123265
0.000129982
0.000136732
0.000143454
0.000150077
0.000156532
0.000162811
0.000168903
0.000174797
0.000180433
0.00018586
0.000190838
0.000195374
0.000198625
0.000200751
0.000201836
0.000201936
0.000201101
0.000199368
0.000196749
0.000193229
0.000188758
0.000183256
0.000176634
0.00016867
0.000158707
0.000148377
0.000137691
0.00012644
0.000115787
0.000105466
9.5181e-05
8.48923e-05
7.4534e-05
6.40536e-05
5.33712e-05
4.22591e-05
3.01846e-05
1.68066e-05
6.30763e-06
4.94915e-05
4.9828e-05
5.05025e-05
5.15168e-05
5.28734e-05
5.45759e-05
5.66294e-05
5.90407e-05
6.18181e-05
6.49686e-05
6.84992e-05
7.24162e-05
7.67256e-05
8.14326e-05
8.65413e-05
9.20531e-05
9.79659e-05
0.00010427
0.000110766
0.000117428
0.000124222
0.000131101
0.000138007
0.000144869
0.000151599
0.000158118
0.000164406
0.000170428
0.00017614
0.000181478
0.000186333
0.000190649
0.000194329
0.000197264
0.000199334
0.000200384
0.000200377
0.000199365
0.00019739
0.000194449
0.000190485
0.000185368
0.00017886
0.000171104
0.000162379
0.000152954
0.00014311
0.000133079
0.000123008
0.000112903
0.000102899
9.28533e-05
8.2682e-05
7.23708e-05
6.19506e-05
5.14352e-05
4.06927e-05
2.92506e-05
1.66323e-05
6.49136e-06
4.87433e-05
4.90863e-05
4.97741e-05
5.0809e-05
5.21942e-05
5.39343e-05
5.60347e-05
5.85023e-05
6.13445e-05
6.45694e-05
6.81859e-05
7.22029e-05
7.66292e-05
8.14735e-05
8.67444e-05
9.245e-05
9.86003e-05
0.000104996
0.000111611
0.000118414
0.000125362
0.000132405
0.000139478
0.0001465
0.000153372
0.000160009
0.000166389
0.000172477
0.00017822
0.000183546
0.000188379
0.000192633
0.000196214
0.00019902
0.000200912
0.0002017
0.000201414
0.000200182
0.000197984
0.000194803
0.000190563
0.000185109
0.000178172
0.00017006
0.000161073
0.000151495
0.000141584
0.000131549
0.00012151
0.000111426
0.000101422
9.13478e-05
8.11332e-05
7.0782e-05
6.03569e-05
4.99251e-05
3.94363e-05
2.85286e-05
1.65889e-05
6.71844e-06
4.82303e-05
4.85787e-05
4.92775e-05
5.03293e-05
5.17377e-05
5.35077e-05
5.56455e-05
5.81585e-05
6.10551e-05
6.4345e-05
6.80381e-05
7.21452e-05
7.66765e-05
8.16416e-05
8.70477e-05
9.28979e-05
9.91886e-05
0.000105721
0.00011248
0.000119436
0.000126548
0.000133763
0.000141011
0.000148207
0.000155245
0.000162
0.000168488
0.00017467
0.000180487
0.00018586
0.000190706
0.000194943
0.000198468
0.000201168
0.000202895
0.000203395
0.000202812
0.000201273
0.000198873
0.000195457
0.000190931
0.000185102
0.000177823
0.00016942
0.000160204
0.000150463
0.000140449
0.000130345
0.000120187
0.000110156
0.00010012
8.99698e-05
7.96587e-05
6.92237e-05
5.87705e-05
4.84207e-05
3.81913e-05
2.77671e-05
1.64754e-05
6.93807e-06
4.78675e-05
4.8221e-05
4.89303e-05
4.99979e-05
5.14279e-05
5.32257e-05
5.5398e-05
5.79531e-05
6.09006e-05
6.42512e-05
6.8017e-05
7.2211e-05
7.68471e-05
8.19394e-05
8.75016e-05
9.35448e-05
9.98926e-05
0.000106523
0.000113408
0.00012051
0.000127784
0.000135168
0.000142588
0.000149951
0.000157143
0.000164026
0.00017063
0.000176911
0.000182808
0.000188232
0.000193093
0.000197311
0.000200771
0.000203342
0.00020485
0.000205099
0.000204252
0.000202448
0.0001998
0.000196149
0.000191349
0.000185153
0.000177547
0.000168871
0.000159439
0.00014954
0.000139417
0.000129234
0.000118982
0.000108886
9.87836e-05
8.85589e-05
7.81712e-05
6.76715e-05
5.7193e-05
4.69033e-05
3.68901e-05
2.69464e-05
1.63909e-05
7.15067e-06
4.763e-05
4.79887e-05
4.87084e-05
4.97919e-05
5.12436e-05
5.3069e-05
5.52755e-05
5.78719e-05
6.08685e-05
6.42772e-05
6.81111e-05
7.23853e-05
7.71159e-05
8.23213e-05
8.80227e-05
9.41122e-05
0.000100584
0.000107349
0.000114382
0.000121645
0.000129088
0.000136646
0.00014424
0.00015177
0.000159114
0.000166121
0.000172835
0.000179213
0.000185186
0.000190661
0.000195534
0.000199734
0.00020313
0.000205566
0.000206822
0.000206793
0.000205657
0.000203553
0.000200575
0.000196764
0.000191721
0.000185159
0.000177236
0.0001683
0.000158668
0.000148625
0.000138404
0.000128145
0.000117797
0.000107627
9.74442e-05
8.71243e-05
7.66332e-05
6.60448e-05
5.55342e-05
4.53169e-05
3.55302e-05
2.604e-05
1.62232e-05
7.33815e-06
4.7505e-05
4.78692e-05
4.85999e-05
4.97003e-05
5.11746e-05
5.3029e-05
5.52712e-05
5.79104e-05
6.09578e-05
6.44256e-05
6.83278e-05
7.26798e-05
7.74975e-05
8.2797e-05
8.85909e-05
9.47765e-05
0.000101362
0.000108265
0.000115451
0.00012288
0.000130496
0.000138232
0.000146
0.000153696
0.000161186
0.000168309
0.000175126
0.000181593
0.000187636
0.000193155
0.000198034
0.000202215
0.000205557
0.000207907
0.000208809
0.000208462
0.000207034
0.000204657
0.000201422
0.000197367
0.00019205
0.000185094
0.000176856
0.000167672
0.00015785
0.000147664
0.00013733
0.000126962
0.000116518
0.000106259
9.59748e-05
8.55522e-05
7.49738e-05
6.43285e-05
5.38077e-05
4.36569e-05
3.40723e-05
2.50251e-05
1.59705e-05
7.48505e-06
4.74825e-05
4.78526e-05
4.85953e-05
4.97138e-05
5.12127e-05
5.30984e-05
5.53791e-05
5.80647e-05
6.11669e-05
6.46989e-05
6.86758e-05
7.31149e-05
7.80363e-05
8.34646e-05
8.93041e-05
9.55558e-05
0.000102218
0.000109283
0.000116637
0.00012424
0.000132036
0.000139953
0.000147897
0.000155756
0.000163387
0.000170615
0.000177525
0.00018407
0.000190173
0.000195724
0.000200592
0.000204728
0.000207957
0.000210041
0.000210645
0.000210005
0.000208296
0.000205646
0.000202128
0.000197769
0.000192096
0.000184828
0.000176319
0.000166907
0.000156902
0.000146566
0.000136079
0.000125435
0.000115023
0.000104692
9.4306e-05
8.37794e-05
7.31118e-05
6.24122e-05
5.18964e-05
4.18418e-05
3.24876e-05
2.38686e-05
1.55216e-05
7.56817e-06
4.75536e-05
4.79302e-05
4.86861e-05
4.98244e-05
5.13501e-05
5.327e-05
5.55928e-05
5.83291e-05
6.14909e-05
6.50923e-05
6.91482e-05
7.36746e-05
7.86874e-05
8.42027e-05
9.0129e-05
9.64769e-05
0.000103251
0.000110452
0.00011797
0.000125751
0.000133733
0.000141834
0.000149957
0.000157977
0.000165742
0.000173062
0.000180049
0.000186658
0.000192809
0.000198382
0.000203236
0.000207351
0.000210578
0.00021218
0.000212397
0.000211433
0.000209443
0.00020652
0.000202692
0.000197896
0.000191964
0.000184407
0.000175625
0.000165979
0.000155785
0.000145297
0.000134671
0.000123838
0.000113283
0.000102825
9.23207e-05
8.16962e-05
7.0971e-05
6.02694e-05
4.98106e-05
3.98785e-05
3.07495e-05
2.25477e-05
1.49158e-05
7.57748e-06
4.77104e-05
4.80942e-05
4.88645e-05
5.00246e-05
5.15797e-05
5.35372e-05
5.59063e-05
5.86985e-05
6.1927e-05
6.56073e-05
6.97565e-05
7.43924e-05
7.95312e-05
8.50972e-05
9.1098e-05
9.75373e-05
0.000104414
0.000111721
0.00011944
0.000127422
0.000135602
0.000143898
0.000152202
0.000160382
0.000168272
0.000175667
0.000182713
0.000189365
0.00019554
0.000201109
0.000205901
0.000209886
0.000212789
0.000214035
0.000213923
0.000212676
0.000210443
0.000207304
0.000203254
0.000198183
0.000191795
0.000183831
0.000174714
0.000164803
0.000154403
0.000143751
0.00013297
0.000121934
0.000111222
0.000100617
8.99731e-05
7.92337e-05
6.84477e-05
5.77581e-05
4.73885e-05
3.76294e-05
2.87796e-05
2.10176e-05
1.40915e-05
7.48277e-06
4.79459e-05
4.83376e-05
4.91237e-05
5.03078e-05
5.18953e-05
5.3894e-05
5.63137e-05
5.91666e-05
6.24673e-05
6.62327e-05
7.04834e-05
7.52452e-05
8.0448e-05
8.60974e-05
9.21981e-05
9.87526e-05
0.000105759
0.000113213
0.000121104
0.000129283
0.000137669
0.000146165
0.000154655
0.000162993
0.000170998
0.000178447
0.000185528
0.000192197
0.000198373
0.000203933
0.000208707
0.000212741
0.000214987
0.000215742
0.000215257
0.000213721
0.000211254
0.000207907
0.000203662
0.000198427
0.000191389
0.000182945
0.00017346
0.000163265
0.000152639
0.000141783
0.000130778
0.000119551
0.000108669
9.78871e-05
8.70776e-05
7.62234e-05
6.5403e-05
5.47723e-05
4.45596e-05
3.50465e-05
2.65279e-05
1.92338e-05
1.30306e-05
7.25446e-06
4.82536e-05
4.8654e-05
4.94578e-05
5.06683e-05
5.22916e-05
5.43358e-05
5.68113e-05
5.97309e-05
6.31091e-05
6.69623e-05
7.13078e-05
7.61638e-05
8.14634e-05
8.72191e-05
9.3438e-05
0.000100123
0.00010727
0.00011487
0.000122901
0.000131329
0.000139945
0.000148655
0.000157335
0.000165828
0.000173936
0.000181415
0.000188503
0.000195151
0.000201292
0.000206753
0.000211381
0.000214972
0.000216754
0.000217112
0.000216314
0.000214528
0.000211841
0.000208256
0.000203688
0.000197951
0.000190442
0.000181583
0.000171748
0.00016126
0.000150373
0.000139224
0.00012769
0.000116492
0.00010547
9.4489e-05
8.349e-05
7.25023e-05
6.16422e-05
5.10959e-05
4.10984e-05
3.19122e-05
2.3801e-05
1.70168e-05
1.15602e-05
6.76727e-06
4.86277e-05
4.90379e-05
4.9861e-05
5.11008e-05
5.27637e-05
5.48583e-05
5.73961e-05
6.03911e-05
6.38597e-05
6.78196e-05
7.2289e-05
7.7216e-05
8.26105e-05
8.84805e-05
9.48309e-05
0.000101663
0.000108974
0.000116754
0.000124982
0.000133627
0.000142466
0.00015139
0.00016026
0.0001689
0.000177095
0.000184579
0.000191655
0.000198281
0.000204397
0.000209866
0.000214464
0.000217126
0.000218277
0.000218211
0.000217126
0.000215131
0.000212257
0.000208446
0.000203534
0.000197178
0.000189114
0.000179778
0.000169542
0.000158714
0.000147516
0.000136042
0.000124215
0.000112771
0.000101496
9.02685e-05
7.90618e-05
6.79417e-05
5.70698e-05
4.66645e-05
3.69672e-05
2.82085e-05
2.06046e-05
1.439e-05
9.65597e-06
5.88441e-06
4.90663e-05
4.94873e-05
5.03319e-05
5.1604e-05
5.33102e-05
5.54601e-05
5.80661e-05
6.11437e-05
6.47118e-05
6.87934e-05
7.33431e-05
7.83694e-05
8.38803e-05
8.98828e-05
9.63814e-05
0.000103378
0.000110868
0.000118842
0.00012728
0.000136148
0.000145228
0.000154385
0.000163452
0.000172228
0.000180477
0.000187928
0.00019494
0.000201479
0.000207537
0.000213128
0.000216639
0.000218585
0.000219289
0.000218947
0.00021768
0.000215543
0.000212513
0.000208478
0.000203249
0.000196034
0.00018728
0.000177369
0.000166647
0.000155384
0.000143727
0.000131568
0.000119648
0.000107947
9.63509e-05
8.4796e-05
7.3306e-05
6.2006e-05