/*--------------------------------*- C++ -*----------------------------------*\
| =========                 |                                                 |
| \\      /  F ield         | OpenFOAM: The Open Source CFD Toolbox           |
|  \\    /   O peration     | Version:  v1906                                 |
|   \\  /    A nd           | Web:      www.OpenFOAM.com                      |
|    \\/     M anipulation  |                                                 |
\*---------------------------------------------------------------------------*/
FoamFile
{
    version     2.0;
    format      ascii;
    class       volScalarField;
    location    "2.83";
    object      O2;
}
// * * * * * * * * * * * * * * * * * * * * * * * * * * * * * * * * * * * * * //

dimensions      [0 0 0 0 0 0 0];


internalField   nonuniform List<scalar> 
26400
(
0.00370775
0.00372276
0.00375281
0.00379792
0.00385815
0.00393358
0.00402428
0.00413037
0.00425197
0.00438921
0.00454225
0.00471126
0.00489643
0.00509797
0.00531609
0.00555104
0.00580309
0.00607251
0.00635962
0.00666477
0.00698835
0.00733076
0.0076925
0.00807408
0.00847611
0.00889929
0.0093444
0.00981238
0.0103043
0.0108214
0.011365
0.0119331
0.0125269
0.0131474
0.0137958
0.0144737
0.0151807
0.0159185
0.0166886
0.0174937
0.0183343
0.019211
0.020125
0.0210778
0.0220719
0.0231102
0.024197
0.0253385
0.0265431
0.0278225
0.0291937
0.0306798
0.0322587
0.0339613
0.0358493
0.0381374
0.0400645
0.0414921
0.0421584
0.0414602
0.00365199
0.00366718
0.00369758
0.00374324
0.00380421
0.00388057
0.00397243
0.0040799
0.00420313
0.00434225
0.00449745
0.00466891
0.00485684
0.00506146
0.005283
0.00552174
0.00577795
0.00605194
0.00634404
0.00665461
0.00698406
0.00733282
0.00770139
0.00809032
0.00850023
0.00893183
0.00938594
0.00986351
0.0103656
0.0108936
0.0114487
0.0120292
0.0126362
0.0132706
0.0139337
0.0146269
0.0153503
0.016105
0.0168931
0.0177166
0.0185761
0.0194722
0.020406
0.0213792
0.0223938
0.0234528
0.0245606
0.0257233
0.0269498
0.0282537
0.0296565
0.0311423
0.03273
0.0344481
0.0363589
0.0386831
0.0406389
0.0420769
0.0427258
0.0419801
0.0035827
0.00359808
0.00362889
0.00367515
0.00373695
0.00381438
0.00390755
0.00401661
0.0041417
0.004283
0.00444071
0.00461503
0.00480619
0.00501443
0.00524001
0.00548321
0.00574434
0.00602372
0.00632169
0.00663865
0.006975
0.00733122
0.00770779
0.0081053
0.00852439
0.00896578
0.0094303
0.00991892
0.0104327
0.0109731
0.0115414
0.012136
0.0127577
0.0134077
0.0140871
0.0147975
0.0155387
0.0163121
0.0171196
0.0179631
0.018843
0.0197599
0.0207149
0.0217094
0.0227456
0.0238262
0.0249556
0.0261394
0.0273864
0.0287096
0.0301299
0.0316324
0.0332379
0.0349775
0.0369134
0.0392679
0.0412444
0.0426873
0.0433114
0.0425111
0.00350938
0.00352494
0.00355608
0.00360288
0.00366541
0.0037438
0.00383817
0.0039487
0.00407556
0.00421895
0.00437909
0.00455622
0.00475058
0.00496244
0.00519208
0.00543981
0.00570595
0.00599084
0.00629485
0.00661838
0.00696186
0.00732578
0.00771066
0.00811708
0.0085457
0.00899726
0.0094726
0.00997272
0.0104987
0.011052
0.011634
0.0122431
0.0128802
0.0135463
0.0142426
0.0149707
0.0157304
0.0165232
0.0173508
0.0182149
0.0191159
0.0200544
0.0210314
0.0220483
0.0231071
0.0242108
0.0253632
0.0265703
0.0278404
0.0291856
0.0306231
0.0321429
0.0337694
0.0355369
0.0375066
0.0398791
0.0418685
0.0433143
0.0439073
0.0430514
0.00343436
0.00345002
0.00348139
0.00352855
0.00359161
0.00367072
0.00376604
0.00387779
0.00400616
0.0041514
0.00431375
0.00449348
0.00469085
0.00490616
0.00513973
0.00539186
0.00566291
0.00595323
0.00626323
0.00659331
0.00694392
0.00731557
0.0077088
0.0081242
0.00856245
0.00902431
0.00951064
0.0100224
0.0105608
0.0111272
0.0117232
0.0123471
0.0129998
0.0136823
0.0143959
0.0151421
0.0159207
0.0167332
0.0175815
0.0184668
0.0193894
0.0203502
0.0213499
0.0223899
0.0234724
0.0246002
0.0257774
0.0270101
0.0283076
0.0296846
0.0311332
0.0326712
0.0343256
0.0361383
0.038176
0.0405274
0.0425137
0.0439595
0.0445135
0.043601
0.00335869
0.00337434
0.00340572
0.00345295
0.00351619
0.00359564
0.00369155
0.00380414
0.00393368
0.00408044
0.00424469
0.00442673
0.00462687
0.00484541
0.00508269
0.00533906
0.00561488
0.00591053
0.00622641
0.00656298
0.00692069
0.00730006
0.00770165
0.00812609
0.00857405
0.00904633
0.0095438
0.0100675
0.0106185
0.0111983
0.0118085
0.0124476
0.0131162
0.0138156
0.0145468
0.0153116
0.0161098
0.0169426
0.0178122
0.0187194
0.0196646
0.0206483
0.0216716
0.0227357
0.0238428
0.0249955
0.026198
0.0274561
0.0287781
0.0301763
0.0316452
0.0332058
0.0348931
0.0367751
0.0390173
0.0412035
0.0431698
0.0446221
0.0451377
0.0441626
0.00328361
0.00329904
0.00333
0.0033767
0.0034395
0.00351872
0.00361465
0.00372759
0.00385785
0.00400572
0.00417152
0.00435556
0.00455817
0.00477969
0.00502046
0.00528086
0.00556126
0.00586207
0.00618371
0.00652664
0.00689136
0.00727839
0.00768832
0.00812178
0.00857948
0.00906222
0.00957091
0.0101066
0.0106704
0.0112637
0.0118884
0.0125428
0.0132278
0.0139443
0.0146936
0.0154774
0.0162955
0.0171492
0.0180406
0.0189702
0.0199385
0.020946
0.0219936
0.0230827
0.0242153
0.0253943
0.026624
0.0279109
0.0292648
0.0306793
0.0321663
0.033745
0.0354493
0.0373467
0.0396048
0.041818
0.0438246
0.0453041
0.0457826
0.0447374
0.00321149
0.00322628
0.00325587
0.00330027
0.00336147
0.00343957
0.00353485
0.0036476
0.00377812
0.00392672
0.0040937
0.00427942
0.00448421
0.00470842
0.00495242
0.00521661
0.00550137
0.00580714
0.00613436
0.00648351
0.0068551
0.00724968
0.00766785
0.00811027
0.00857769
0.0090709
0.00959085
0.0101386
0.0107153
0.0113224
0.0119617
0.0126317
0.0133332
0.0140672
0.014835
0.0156383
0.0164768
0.017352
0.0182661
0.0192191
0.0202114
0.0212436
0.0223164
0.0234314
0.0245903
0.0257961
0.0270528
0.0283665
0.0297467
0.0311867
0.0326983
0.0343005
0.0360259
0.0379401
0.0402089
0.0424428
0.0444911
0.0460058
0.0464501
0.0453271
0.00312694
0.00314213
0.00317258
0.00321836
0.00327959
0.00335639
0.00345089
0.00356324
0.00369376
0.00384278
0.00401066
0.00419775
0.0044044
0.00463101
0.00487795
0.00514564
0.0054345
0.00574497
0.00607752
0.00643266
0.0068109
0.00721284
0.0076391
0.00809035
0.00856735
0.00907096
0.00960212
0.0101619
0.0107515
0.0113725
0.0120265
0.0127123
0.0134306
0.0141823
0.014969
0.0157922
0.0166518
0.0175493
0.0184865
0.0194636
0.0204806
0.0215383
0.0226374
0.0237793
0.0249659
0.0262
0.0274857
0.0288286
0.0302366
0.0317043
0.0332441
0.0348749
0.0366282
0.0385652
0.040839
0.0430836
0.0451705
0.046729
0.0471436
0.0459316
0.00303374
0.00304925
0.00308033
0.00312708
0.00318965
0.00326824
0.00336312
0.00347455
0.00360469
0.00375373
0.00392209
0.00411013
0.00431826
0.00454688
0.00479639
0.00506722
0.00535982
0.00567465
0.00601221
0.00637301
0.00675761
0.00716663
0.0076007
0.00806054
0.00854694
0.00906077
0.009603
0.0101747
0.0107772
0.011412
0.0120809
0.0127825
0.0135177
0.0142875
0.0150932
0.0159365
0.016817
0.0177381
0.0186997
0.0197018
0.0207447
0.0218289
0.0229554
0.0241253
0.0253409
0.0266052
0.0279228
0.0293005
0.0307334
0.0322293
0.0338004
0.0354664
0.0372601
0.0392381
0.0414979
0.0437396
0.0458573
0.0474688
0.0478611
0.0465565
0.00293331
0.00294901
0.00298049
0.00302785
0.00309126
0.00317095
0.0032672
0.00338038
0.00351092
0.00365928
0.00382753
0.00401604
0.00422517
0.00445535
0.00470698
0.00498051
0.00527641
0.00559515
0.00593727
0.00630331
0.00669385
0.00710953
0.00755103
0.0080191
0.00851455
0.00903829
0.00959132
0.0101748
0.0107899
0.0114383
0.0121219
0.0128395
0.0135918
0.01438
0.0152056
0.0160691
0.0169718
0.0179165
0.0189029
0.0199308
0.0210003
0.022112
0.0232666
0.0244654
0.0257105
0.0270048
0.0283528
0.0297614
0.0312257
0.0327541
0.0343602
0.0360673
0.0379193
0.0400125
0.0421814
0.0444032
0.0465514
0.048222
0.0486054
0.0472053
0.00282672
0.00284253
0.00287423
0.00292192
0.00298578
0.00306604
0.00316298
0.00327698
0.00340846
0.00355792
0.00372592
0.0039146
0.00412437
0.00435564
0.00460889
0.00488458
0.00518319
0.00550527
0.00585135
0.00622203
0.00661792
0.00703969
0.00748807
0.00796382
0.00846781
0.00900098
0.00956435
0.0101591
0.0107866
0.0114482
0.0121462
0.0128793
0.0136482
0.0144539
0.015298
0.0161804
0.0171084
0.0180788
0.0190914
0.0201463
0.0212438
0.0223842
0.0235684
0.0247976
0.0260737
0.0273996
0.0287796
0.0302206
0.0317174
0.0332784
0.0349168
0.0366546
0.0385327
0.0406399
0.0428173
0.0450556
0.0472452
0.0489802
0.049369
0.0478858
0.00271484
0.0027307
0.0027625
0.00281034
0.00287441
0.00295495
0.00305225
0.0031667
0.00329873
0.00344886
0.00361768
0.00380588
0.00401559
0.00424727
0.00450141
0.00477849
0.00507907
0.00540368
0.00575292
0.00612741
0.00652783
0.00695488
0.00740932
0.00789197
0.00840374
0.0089456
0.00951863
0.010124
0.0107632
0.0114377
0.0121497
0.0128981
0.0136837
0.0145076
0.0153714
0.0162755
0.0172268
0.0182219
0.0192606
0.0203429
0.0214691
0.0226394
0.0238545
0.0251157
0.0264248
0.0277844
0.0291988
0.0306746
0.0322068
0.0338042
0.0354801
0.0372565
0.0391698
0.0412808
0.0434579
0.045708
0.047936
0.0497384
0.0501462
0.0486092
0.00259823
0.00261407
0.00264583
0.00269363
0.00275764
0.00283812
0.00293539
0.00304982
0.00318188
0.0033321
0.0035011
0.00368958
0.00389832
0.00412945
0.00438348
0.00466096
0.00496245
0.00528854
0.00563988
0.00601712
0.00642098
0.00685221
0.00731162
0.00780009
0.00831855
0.00886804
0.00944969
0.0100648
0.0107147
0.0114009
0.012126
0.0128889
0.0136902
0.0145309
0.0154126
0.0163397
0.017315
0.0183353
0.0194007
0.0205111
0.0216668
0.0228682
0.0241158
0.0254109
0.0267551
0.0281508
0.0296021
0.0311154
0.0326859
0.0343228
0.0360415
0.0378698
0.0398613
0.0419346
0.0441013
0.0463592
0.0486207
0.0504866
0.0509277
0.0493838
0.00247755
0.00249329
0.00252485
0.00257236
0.00263599
0.00271601
0.00281274
0.00292658
0.00305802
0.00320759
0.00337595
0.0035638
0.00377198
0.00400139
0.0042541
0.00453069
0.00483177
0.00515798
0.00550998
0.00588849
0.00629427
0.00672813
0.00719095
0.00768365
0.00820726
0.00876287
0.00935168
0.00997499
0.0106343
0.0113312
0.0120682
0.0128446
0.013661
0.0145186
0.015419
0.0163666
0.0173642
0.0184086
0.0194999
0.0206382
0.0218238
0.0230571
0.0243386
0.0256694
0.027051
0.0284856
0.0299769
0.0315306
0.0331416
0.0348183
0.0365746
0.0384364
0.0404537
0.042547
0.0447305
0.0470055
0.0492952
0.0512117
0.0517037
0.0502223
0.00235335
0.00236891
0.0024001
0.00244705
0.00250996
0.00258908
0.00268475
0.00279738
0.00292747
0.00307558
0.00324235
0.00342853
0.00363496
0.00386257
0.00411242
0.00438649
0.00468544
0.00500996
0.00536077
0.00573864
0.00614437
0.00657883
0.00704295
0.00753774
0.00806429
0.00862379
0.00921751
0.00984684
0.0105133
0.0112185
0.0119653
0.012753
0.0135821
0.0144538
0.0153718
0.0163385
0.0173567
0.0184237
0.0195397
0.0207051
0.0219201
0.0231853
0.0245012
0.025869
0.0272898
0.0287659
0.0303004
0.0318984
0.0335547
0.0352761
0.037075
0.0389741
0.0410185
0.0431329
0.045333
0.0476233
0.049936
0.0519009
0.0524871
0.0511272
0.00222647
0.00224173
0.00227232
0.00231838
0.00238011
0.00245777
0.00255172
0.00266238
0.00279024
0.00293591
0.00310004
0.00328338
0.0034868
0.00371125
0.00395777
0.00422755
0.00452247
0.00484323
0.00519059
0.00556534
0.00596833
0.00640051
0.00686289
0.00735657
0.00788279
0.00844286
0.00903821
0.00967037
0.010341
0.0110517
0.0118053
0.0126016
0.0134409
0.0143246
0.0152563
0.0162383
0.0172735
0.0183599
0.0194978
0.0206877
0.0219302
0.0232259
0.0245755
0.0259801
0.0274409
0.0289598
0.0305397
0.0321851
0.0338913
0.0356631
0.0375099
0.0394505
0.0415233
0.043659
0.0458737
0.0481749
0.0505088
0.0525424
0.0532823
0.0520764
0.00209813
0.00211296
0.0021427
0.00218749
0.00224752
0.00232308
0.00241452
0.00252228
0.00264689
0.00278892
0.00294909
0.00312814
0.00332697
0.00354652
0.00378788
0.00405223
0.00434086
0.00465554
0.00499701
0.00536606
0.00576353
0.00619032
0.00664745
0.00713618
0.00765786
0.00821398
0.00880615
0.0094362
0.0101062
0.0108183
0.0115741
0.0123737
0.0132174
0.0141082
0.0150483
0.0160405
0.0170877
0.0181885
0.0193437
0.020554
0.0218202
0.0231432
0.0245241
0.025964
0.0274642
0.0290265
0.0306529
0.0323468
0.0341131
0.0359452
0.037851
0.0398454
0.0419594
0.0441287
0.046365
0.0486785
0.0510338
0.053139
0.0540747
0.0530677
0.00196981
0.00198407
0.00201269
0.00205577
0.00211355
0.00218629
0.00227437
0.00237823
0.0024984
0.00263548
0.00279019
0.0029633
0.00315571
0.00336839
0.00360243
0.00385902
0.00413948
0.00444523
0.0047779
0.00513829
0.00552689
0.00594483
0.00639329
0.00687356
0.00738701
0.00793517
0.00851967
0.00914234
0.00980518
0.0105104
0.0112619
0.0120581
0.0128995
0.0137889
0.0147288
0.015722
0.0167717
0.017878
0.0190419
0.0202647
0.0215477
0.0228924
0.0243004
0.0257736
0.027314
0.0289239
0.0306061
0.0323637
0.0342014
0.0361129
0.0381032
0.0401824
0.042372
0.0446125
0.0469099
0.0492651
0.0516273
0.0537304
0.0548714
0.0541378
0.00184331
0.00185687
0.00188408
0.00192506
0.00198001
0.00204924
0.00213309
0.00223201
0.00234655
0.00247731
0.002625
0.00279041
0.00297445
0.00317809
0.00340245
0.00364872
0.00391824
0.00421243
0.00453289
0.00488041
0.00525601
0.00566075
0.00609579
0.00656239
0.00706192
0.00759591
0.008166
0.00877404
0.00942205
0.0101123
0.0108488
0.0116306
0.0124589
0.0133357
0.0142639
0.0152461
0.0162858
0.0173844
0.0185433
0.0197642
0.021049
0.0224
0.0238198
0.0253111
0.0268773
0.0285221
0.0302496
0.0320647
0.0339725
0.0359723
0.0380651
0.0402572
0.0425597
0.0449248
0.0473459
0.0498071
0.0522229
0.0543066
0.0556071
0.055353
0.00171964
0.00173237
0.0017579
0.00179636
0.00184794
0.00191293
0.00199168
0.00208462
0.00219228
0.00231527
0.00245428
0.00261009
0.0027836
0.00297578
0.00318773
0.00342064
0.00367582
0.00395472
0.00425923
0.00459018
0.00494851
0.00533521
0.00575137
0.00619816
0.00667692
0.00718906
0.00773617
0.00832001
0.00894253
0.0096059
0.0103141
0.0110673
0.0118658
0.0127118
0.0136076
0.0145559
0.0155599
0.0166231
0.0177462
0.0189313
0.0201807
0.0214971
0.0228836
0.0243439
0.0258821
0.027503
0.0292127
0.0310178
0.0329249
0.0349402
0.0370606
0.0392887
0.0416249
0.0440713
0.0465868
0.0491539
0.0517896
0.0542836
0.0562737
0.0562991
0.00160703
0.00161975
0.00164529
0.00168378
0.00173544
0.00180057
0.00187958
0.00197294
0.00208124
0.00220515
0.00234546
0.00250304
0.00267891
0.00287418
0.00309009
0.00332802
0.00358946
0.00387728
0.00419233
0.00453552
0.00490786
0.00531045
0.00574452
0.00621142
0.00671265
0.00724985
0.00782485
0.00843969
0.00909664
0.00979825
0.0105491
0.0113491
0.0121987
0.0131003
0.0140568
0.0150714
0.0161479
0.0172878
0.018493
0.0197658
0.0211091
0.0225263
0.0240217
0.0256004
0.0272686
0.0290327
0.0308985
0.0328712
0.0349582
0.0371541
0.0394712
0.0419227
0.0445233
0.0472011
0.0499374
0.0526941
0.0554091
0.0578805
0.0593004
0.0576815
0.0015061
0.00151893
0.00154467
0.00158349
0.00163562
0.0017014
0.00178126
0.00187573
0.00198545
0.00211117
0.00225375
0.00241421
0.00259366
0.00279339
0.00301483
0.00325955
0.00353146
0.00383137
0.00416016
0.00451885
0.00490856
0.00533053
0.00578615
0.00627695
0.00680464
0.00737109
0.00797841
0.00862891
0.00932522
0.0100703
0.0108693
0.0117215
0.0126277
0.0135907
0.0146138
0.0157007
0.0168537
0.0180744
0.0193646
0.0207266
0.0221632
0.0236777
0.0252739
0.0269563
0.0287301
0.0306016
0.0325776
0.0346661
0.0368629
0.0391645
0.0415956
0.0441782
0.0468297
0.0495181
0.052203
0.0548385
0.0573614
0.0595628
0.0606848
0.0589703
0.00141469
0.00142757
0.00145342
0.00149242
0.00154481
0.00161095
0.0016913
0.0017864
0.00189695
0.00202375
0.00216772
0.00232997
0.00251175
0.00271449
0.00293982
0.00319283
0.00347425
0.0037849
0.00412576
0.00449794
0.00490267
0.00534135
0.00581553
0.0063269
0.00687735
0.00746897
0.00810405
0.00878514
0.00951512
0.0102972
0.0111372
0.0120336
0.0129872
0.0140012
0.0150792
0.0162246
0.0174387
0.0187228
0.0200789
0.0215092
0.0230167
0.0246048
0.0262778
0.0280408
0.0298997
0.0318615
0.0339342
0.0361116
0.0383867
0.0407495
0.0432379
0.0458753
0.0485423
0.0512062
0.0538345
0.056392
0.0588205
0.0609209
0.0620313
0.060474
0.00133235
0.00134523
0.0013711
0.00141012
0.00146257
0.00152879
0.00160926
0.00170456
0.00181536
0.00194249
0.0020869
0.00224973
0.00243233
0.00263629
0.00286804
0.00312819
0.00341753
0.00373699
0.00408767
0.0044708
0.0048878
0.00534022
0.0058298
0.00635845
0.00692826
0.00754151
0.00820067
0.00890849
0.00966804
0.0104828
0.011359
0.0122943
0.0132896
0.0143481
0.0154752
0.0166717
0.0179385
0.0192771
0.020689
0.0221766
0.0237423
0.0253895
0.0271221
0.0289447
0.030863
0.0328835
0.0350143
0.0372419
0.0395574
0.0419465
0.0444574
0.0471181
0.0497929
0.0524503
0.0550564
0.0575758
0.0599613
0.0620593
0.0633302
0.0622343
0.00125872
0.00127156
0.00129738
0.00133633
0.00138869
0.00145484
0.00153525
0.00163051
0.0017413
0.0018684
0.00201266
0.00217513
0.00235708
0.00256608
0.00280296
0.0030685
0.00336367
0.00368957
0.00404746
0.00443871
0.00486487
0.00532772
0.00582925
0.00637163
0.00695718
0.00758838
0.00826784
0.00899835
0.00978305
0.0106255
0.0115324
0.0125005
0.0135309
0.0146273
0.0157941
0.0170318
0.0183412
0.0197235
0.0211802
0.0227134
0.0243257
0.0260202
0.0278011
0.0296732
0.0316424
0.0337155
0.0358998
0.0381757
0.0405326
0.0429512
0.0454903
0.0481795
0.0508602
0.0535092
0.056102
0.0586131
0.061008
0.0631738
0.0647159
0.0642981
0.00119344
0.00120624
0.00123196
0.00127077
0.00132297
0.00138894
0.0014692
0.00156441
0.00167545
0.00180299
0.00194764
0.00210988
0.00229639
0.00250891
0.00274897
0.00301764
0.0033163
0.00364641
0.00400941
0.00440638
0.004839
0.00530936
0.00581985
0.00637309
0.00697186
0.00761894
0.00831692
0.00906843
0.00987638
0.0107441
0.0116785
0.0126754
0.0137356
0.0148667
0.016069
0.0173435
0.0186909
0.0201122
0.021609
0.0231829
0.0248365
0.0265731
0.0283968
0.0303125
0.0323267
0.0344483
0.0366663
0.0389745
0.0413615
0.0438072
0.0463638
0.0490574
0.0517414
0.0543998
0.0570051
0.0595315
0.0619639
0.0642573
0.0661944
0.0668055
0.00113597
0.00114873
0.00117433
0.00121297
0.00126492
0.00133054
0.00141022
0.00150491
0.00161678
0.00174625
0.00189456
0.00206314
0.00225375
0.00246829
0.00270875
0.00297735
0.00327648
0.0036088
0.00397726
0.0043782
0.00481444
0.00528893
0.00580481
0.00636553
0.00697494
0.00763703
0.00835341
0.00912596
0.00995703
0.0108485
0.0118062
0.012828
0.0139148
0.0150736
0.0163051
0.0176103
0.0189904
0.0204458
0.0219773
0.0235866
0.0252763
0.0270497
0.0289113
0.0308656
0.0329179
0.0350774
0.0373305
0.0396735
0.0421014
0.044618
0.0472108
0.0498591
0.0525337
0.055203
0.0578359
0.0604111
0.0629353
0.0654646
0.0680839
0.0703997
0.00108612
0.00109877
0.00112425
0.00116278
0.00121476
0.00128071
0.00136131
0.00145742
0.00157004
0.00170035
0.00184968
0.00201958
0.00221179
0.00242828
0.00267125
0.00294314
0.00324665
0.00358467
0.00395441
0.00435834
0.00479914
0.00527976
0.00580346
0.00637384
0.00699498
0.00767079
0.00840263
0.00919205
0.0100409
0.0109515
0.0119277
0.0129722
0.0140843
0.0152665
0.0165221
0.0178554
0.0192683
0.0207571
0.0223225
0.0239659
0.0256901
0.0274994
0.0294007
0.0313975
0.0334888
0.0356739
0.0379515
0.0403196
0.0427743
0.0453094
0.0479179
0.0505812
0.0532717
0.0559531
0.0585873
0.0611451
0.0636253
0.0660808
0.0685985
0.0708621
0.00104768
0.00106028
0.00108564
0.00112403
0.00117585
0.00124167
0.00132218
0.00141826
0.00153094
0.00166146
0.00181121
0.00198182
0.00217513
0.00239324
0.00263854
0.00291375
0.00322203
0.00356124
0.00393352
0.00434128
0.00478724
0.00527442
0.00580622
0.00638644
0.00701938
0.00770903
0.00845653
0.00926329
0.010131
0.0110619
0.0120617
0.0131311
0.0142694
0.0154791
0.0167636
0.0181274
0.0195706
0.0210928
0.0226912
0.0243671
0.0261233
0.0279641
0.0298994
0.0319277
0.0340479
0.0362594
0.0385611
0.0409513
0.0434268
0.0459821
0.0486096
0.0512888
0.0539907
0.0566803
0.0593185
0.0618703
0.0643228
0.0667117
0.069126
0.071331
0.00101572
0.00102825
0.0010535
0.00109173
0.00114336
0.00120897
0.0012893
0.00138525
0.00149791
0.00162855
0.00177863
0.00194984
0.00214411
0.00236358
0.00261066
0.00288805
0.00319869
0.00354066
0.00391642
0.00432862
0.00478012
0.00527411
0.00581411
0.00640411
0.00704861
0.00775269
0.00851626
0.00934074
0.0102279
0.01118
0.0122029
0.0132972
0.0144619
0.0156996
0.0170137
0.0184088
0.0198834
0.0214366
0.0230683
0.0247771
0.026566
0.0284401
0.0304071
0.0324652
0.0346129
0.036849
0.0391725
0.0415812
0.044071
0.0466431
0.0492859
0.0519807
0.0546994
0.0574034
0.0600487
0.0625936
0.0650157
0.0673438
0.0696647
0.0718019
0.000988826
0.00100131
0.00102646
0.00106456
0.00111604
0.00118151
0.00126172
0.00135761
0.00147033
0.00160119
0.00175174
0.00192376
0.00211929
0.00234063
0.00259034
0.00287125
0.00318267
0.00352676
0.0039059
0.00432267
0.00477998
0.00528109
0.00582968
0.00642994
0.00708661
0.00780515
0.00858491
0.00942726
0.010334
0.0113074
0.0123538
0.0134731
0.0146645
0.0159307
0.0172753
0.0187018
0.020208
0.0217929
0.0234562
0.0251967
0.0270177
0.0289245
0.0309227
0.0330099
0.0351845
0.0374452
0.0397909
0.0422199
0.0447283
0.0473177
0.049976
0.0526836
0.0554121
0.058124
0.0607745
0.0633174
0.0657199
0.067993
0.0702167
0.072281
0.000966284
0.000978739
0.00100384
0.00104186
0.00109327
0.00115868
0.00123887
0.00133484
0.00144774
0.00157897
0.00173013
0.00190312
0.00210008
0.00232354
0.00257639
0.00285824
0.00317171
0.00351893
0.00390226
0.00432434
0.00478812
0.00529699
0.00585479
0.00646592
0.00713542
0.00786911
0.00866571
0.00952655
0.0104535
0.0114489
0.0125192
0.0136642
0.014883
0.0161785
0.0175551
0.0190141
0.0205531
0.0221703
0.0238654
0.0256392
0.0274934
0.0294344
0.031465
0.0335824
0.0357846
0.0380702
0.0404379
0.042886
0.045411
0.0480144
0.0506846
0.0534032
0.0561429
0.058865
0.0615204
0.0640572
0.0664362
0.0686566
0.0707878
0.0727684
0.000947554
0.000960004
0.000985094
0.00102312
0.00107455
0.00114002
0.00122035
0.00131656
0.00142984
0.00156164
0.00171363
0.00188773
0.00208617
0.00231143
0.00256627
0.00285047
0.00316702
0.0035183
0.00390671
0.00433494
0.00480604
0.00532352
0.00589139
0.00651429
0.0071976
0.00794752
0.008762
0.00964235
0.0105904
0.0116088
0.0127043
0.013876
0.0151231
0.0164486
0.0178598
0.0193533
0.0209266
0.0225779
0.0243066
0.0261137
0.0280005
0.0299776
0.0320415
0.0341896
0.0364199
0.0387311
0.0411217
0.04359
0.0461337
0.0487534
0.0514365
0.0541636
0.056907
0.0596295
0.0622835
0.0648151
0.0671764
0.069347
0.0713826
0.0732723
0.000932169
0.000944639
0.000969776
0.00100788
0.00105944
0.00112512
0.00120577
0.00130243
0.00141636
0.00154906
0.00170226
0.001878
0.00207866
0.00230703
0.00256324
0.00284979
0.00316957
0.00352585
0.00392027
0.00435562
0.00483506
0.00536221
0.00594128
0.00657717
0.0072756
0.00804324
0.00887706
0.00977839
0.0107492
0.0117921
0.0129143
0.0141146
0.0153925
0.0167524
0.0181992
0.0197288
0.0213382
0.0230255
0.0247902
0.0266336
0.0285579
0.0305711
0.0326694
0.0348497
0.0371097
0.0394479
0.0418623
0.0443489
0.0469137
0.0495493
0.0522432
0.0549769
0.0577235
0.0604456
0.0630946
0.0656141
0.0679495
0.0700684
0.07201
0.0737948
0.000919722
0.000932241
0.000957478
0.00099575
0.00104756
0.0011136
0.00119474
0.00129209
0.00140695
0.00154085
0.00169561
0.00187327
0.00207621
0.00230709
0.00256619
0.00285628
0.00318045
0.00354229
0.0039437
0.00438734
0.00487637
0.00541454
0.00600625
0.00665667
0.00737192
0.00815917
0.00901426
0.00993849
0.0109339
0.0120034
0.0131544
0.0143848
0.0156939
0.0170937
0.0185798
0.0201484
0.0217964
0.023522
0.0253251
0.0272071
0.0291719
0.0312239
0.0333589
0.0355736
0.0378659
0.0402339
0.0426755
0.0451869
0.0477736
0.0504272
0.0531335
0.0558718
0.058614
0.0613236
0.0639556
0.0664564
0.0687667
0.0708359
0.0726798
0.0743463
0.00090986
0.000922455
0.000947848
0.000986369
0.00103854
0.00110509
0.00118694
0.00128523
0.00140133
0.00153687
0.00169375
0.00187414
0.00208054
0.00231377
0.00257615
0.00287035
0.00319948
0.00356709
0.00397729
0.00443082
0.00493106
0.00548193
0.00608804
0.00675489
0.00748903
0.00829825
0.00917695
0.0101265
0.0111492
0.0122481
0.0134312
0.0146961
0.0160442
0.0174847
0.0190122
0.0206222
0.0223118
0.0240791
0.025924
0.0278486
0.0298578
0.0319525
0.0341281
0.0363811
0.0387093
0.0411107
0.0435831
0.0461226
0.0487334
0.0514058
0.0541251
0.0568689
0.0596064
0.0623008
0.0649099
0.0673815
0.0696539
0.0716647
0.073405
0.0749338
0.000902285
0.000914981
0.000940583
0.000979435
0.00103209
0.0010993
0.00118203
0.00128149
0.00139913
0.00153666
0.00169611
0.00187983
0.00208918
0.00232611
0.00259299
0.00289253
0.00322797
0.00360311
0.00402249
0.00448724
0.0050004
0.00556588
0.00618849
0.00687405
0.00762957
0.00846352
0.00936861
0.0103463
0.0113993
0.0125314
0.0137492
0.0150484
0.0164441
0.0179309
0.0195043
0.0211601
0.0228954
0.0247088
0.0266002
0.0285717
0.0306314
0.0327739
0.034995
0.0372911
0.0396603
0.0421005
0.0446092
0.0471843
0.049827
0.0525254
0.0552619
0.0580103
0.0607379
0.063409
0.0659825
0.0684101
0.0706324
0.0725775
0.0742071
0.0755806
0.000896743
0.000909567
0.00093543
0.000974695
0.00102794
0.00109595
0.00117977
0.00128064
0.00140011
0.00153995
0.00170227
0.00188946
0.00210288
0.0023446
0.00261702
0.00292299
0.00326579
0.00364928
0.00407793
0.00455688
0.00508538
0.00566785
0.00630948
0.00701645
0.0077963
0.00865824
0.00959286
0.0106019
0.0116916
0.0128645
0.0141207
0.015464
0.0169073
0.0184433
0.0200665
0.0217728
0.0235592
0.0254246
0.0273696
0.0293973
0.031512
0.0337079
0.0359806
0.0383265
0.0407433
0.0432288
0.045779
0.0483994
0.0510816
0.0538128
0.0565727
0.0593322
0.0620557
0.0647039
0.0672352
0.0696047
0.0717609
0.07363
0.0751414
0.0763341
0.000893022
0.000906001
0.000932178
0.000971935
0.00102588
0.00109486
0.00117995
0.00128251
0.00140414
0.00154678
0.0017127
0.00190392
0.00212218
0.00236959
0.00264863
0.00296227
0.00331399
0.00370787
0.00414877
0.00464237
0.00518773
0.00578946
0.00645289
0.00718449
0.00799216
0.00888579
0.00985355
0.0108974
0.0120242
0.0132354
0.014533
0.0159356
0.0174359
0.019028
0.0207072
0.02247
0.024314
0.0262385
0.0282447
0.030337
0.0325147
0.0347719
0.0371042
0.0395082
0.0419817
0.0445226
0.0471285
0.0498023
0.0525334
0.0553054
0.0580945
0.0608695
0.0635901
0.0662123
0.0686922
0.0709887
0.0730598
0.0748399
0.0762483
0.0772777
0.000890931
0.000904095
0.00093064
0.00097097
0.00102573
0.00109583
0.00118241
0.0012869
0.00141102
0.00155678
0.00172698
0.00192318
0.00214721
0.00240128
0.00268803
0.00301057
0.00337259
0.00377842
0.00423322
0.00474314
0.00530799
0.0059322
0.00662114
0.0073815
0.00822146
0.00915081
0.0101558
0.0112388
0.0124068
0.0136581
0.0150198
0.0164841
0.0180451
0.0196982
0.0214396
0.0232665
0.0251771
0.0271704
0.0292484
0.0314173
0.03367
0.0360014
0.0384074
0.0408849
0.0434312
0.0460433
0.0487268
0.051475
0.0542758
0.0571095
0.0599493
0.0627583
0.0654905
0.0680975
0.0705303
0.0727453
0.0747049
0.0763714
0.0777144
0.0786496
0.00088932
0.000902094
0.00092786
0.000967019
0.00102021
0.00108832
0.00117249
0.00127413
0.00139497
0.00153713
0.00170328
0.00189477
0.00211331
0.00236096
0.00264023
0.00295405
0.00330589
0.00369981
0.00414057
0.00463371
0.00518574
0.00579543
0.00646742
0.00720799
0.00802519
0.00892917
0.00991044
0.0109685
0.0121087
0.0133292
0.0146568
0.0160843
0.0176081
0.0192242
0.020929
0.0227199
0.0245947
0.0265501
0.028586
0.0307101
0.0329172
0.0352019
0.0375602
0.0399894
0.0424882
0.045056
0.0476918
0.0504025
0.0531805
0.0560123
0.0588767
0.0617432
0.0645707
0.067308
0.0699
0.0722956
0.0744469
0.0763096
0.0778359
0.078938
0.000888913
0.000901227
0.000926074
0.000963845
0.00101517
0.0010809
0.00116216
0.00126027
0.0013768
0.00151529
0.00167683
0.00186278
0.00207477
0.0023148
0.00258522
0.00288882
0.00322888
0.00360924
0.00403438
0.00450945
0.00504049
0.00563394
0.00628595
0.00700264
0.00779118
0.00866015
0.00961967
0.010652
0.011764
0.0129574
0.0142442
0.015626
0.0171072
0.0186826
0.0203484
0.0221028
0.0239471
0.0258698
0.0278715
0.0299557
0.0321262
0.0343761
0.0367001
0.0390951
0.0415599
0.0440938
0.0466964
0.0493756
0.0521299
0.0549525
0.0578293
0.0607373
0.0636415
0.0664941
0.0692385
0.0718159
0.0741657
0.0762286
0.077954
0.0792406
0.000890025
0.000901907
0.000925888
0.000962355
0.00101193
0.00107546
0.0011541
0.00124928
0.00136272
0.00149771
0.0016551
0.00183612
0.00204234
0.00227565
0.00253833
0.00283304
0.00316288
0.00353158
0.00394363
0.00440365
0.00491908
0.00549616
0.00613118
0.00682884
0.00759568
0.0084401
0.00937294
0.0103805
0.0114648
0.0126393
0.013902
0.0152558
0.0167056
0.0182508
0.0198862
0.0216089
0.0234186
0.0253185
0.0272972
0.0293568
0.0315041
0.0337326
0.0360371
0.0384146
0.0408641
0.0433863
0.045983
0.0486556
0.0514135
0.0542516
0.0571584
0.0601137
0.0630862
0.0660321
0.0688941
0.0716063
0.0741011
0.0763094
0.0781705
0.079566
0.000892635
0.000904123
0.000927311
0.000962575
0.00101051
0.00107192
0.00114794
0.00124008
0.0013521
0.00148467
0.0016388
0.00181579
0.0020172
0.00224495
0.00250123
0.0027886
0.00310989
0.00346846
0.0038707
0.00432021
0.00482177
0.00538125
0.00600545
0.00668894
0.00743847
0.00826151
0.00916682
0.0101646
0.0112339
0.0123914
0.0136351
0.0149674
0.0163925
0.017917
0.0195309
0.0212311
0.0230166
0.024889
0.0268536
0.0288991
0.0310295
0.0332432
0.035534
0.0378989
0.0403369
0.0428493
0.0454381
0.0481057
0.0508641
0.0537102
0.0566364
0.0596268
0.0626535
0.0656737
0.0686302
0.0714542
0.0740725
0.0764095
0.0783918
0.0798876
0.000896657
0.000907788
0.000930267
0.00096447
0.00101096
0.00107044
0.00114374
0.00123543
0.00134608
0.00147653
0.00162786
0.00180142
0.00199881
0.00222192
0.00247304
0.00275495
0.00306986
0.00342367
0.00381912
0.00425995
0.00475104
0.00529857
0.00591026
0.0065823
0.00731984
0.00812979
0.00902088
0.0100039
0.0110596
0.012204
0.0134344
0.0147526
0.0161626
0.0176711
0.0192703
0.0209567
0.0227282
0.0245848
0.0265297
0.0285696
0.0306934
0.0329007
0.0351857
0.0375459
0.0399809
0.042492
0.0450818
0.047753
0.0505191
0.0533788
0.0563276
0.059352
0.0624266
0.0655107
0.0685466
0.0714609
0.0741741
0.0766041
0.0786697
0.0802242
0.000901948
0.000912747
0.000934594
0.000967927
0.00101341
0.00107186
0.0011444
0.00123515
0.00134441
0.00147291
0.00162175
0.00179234
0.00198631
0.00220536
0.00245151
0.00273058
0.00304404
0.00339427
0.00378432
0.00421801
0.00470009
0.00523637
0.00583383
0.0065005
0.00723038
0.00803099
0.00891138
0.00988307
0.0109294
0.0120658
0.0132877
0.0145965
0.0159961
0.0174931
0.0190827
0.0207606
0.0225242
0.0243727
0.0263077
0.0283338
0.0304588
0.0326634
0.0349452
0.037303
0.0397369