/*--------------------------------*- C++ -*----------------------------------*\
| =========                 |                                                 |
| \\      /  F ield         | OpenFOAM: The Open Source CFD Toolbox           |
|  \\    /   O peration     | Version:  v1906                                 |
|   \\  /    A nd           | Web:      www.OpenFOAM.com                      |
|    \\/     M anipulation  |                                                 |
\*---------------------------------------------------------------------------*/
FoamFile
{
    version     2.0;
    format      ascii;
    class       volScalarField;
    location    "2.83";
    object      OH;
}
// * * * * * * * * * * * * * * * * * * * * * * * * * * * * * * * * * * * * * //

dimensions      [0 0 0 0 0 0 0];


internalField   nonuniform List<scalar> 
26400
(
0.00140976
0.00141079
0.00141284
0.00141592
0.00142001
0.0014251
0.00143118
0.00143823
0.00144623
0.00145516
0.00146499
0.00147571
0.00148728
0.00149966
0.00151283
0.00152674
0.00154136
0.00155664
0.00157252
0.00158896
0.00160589
0.00162323
0.00164092
0.00165886
0.00167693
0.00169503
0.00171301
0.00173069
0.00174788
0.00176433
0.00177974
0.00179446
0.00180838
0.00182138
0.00183327
0.00184381
0.00185298
0.00186061
0.00186647
0.0018688
0.00186766
0.00186311
0.00185515
0.00184376
0.00182884
0.0018102
0.00178753
0.0017603
0.00172769
0.0016883
0.00163972
0.00157766
0.00150794
0.00142267
0.00129825
0.00103676
0.000867681
0.000734488
0.000594967
0.000411578
0.00139868
0.00139974
0.00140188
0.00140507
0.00140932
0.00141459
0.00142089
0.00142819
0.00143647
0.0014457
0.00145586
0.00146692
0.00147885
0.00149161
0.00150517
0.00151948
0.00153451
0.0015502
0.0015665
0.00158336
0.00160071
0.00161848
0.00163659
0.00165494
0.00167344
0.00169194
0.00171031
0.00172838
0.00174594
0.00176275
0.00177851
0.00179355
0.00180778
0.00182105
0.00183317
0.0018439
0.00185323
0.00186097
0.00186689
0.00186932
0.00186832
0.00186396
0.00185625
0.00184516
0.0018306
0.00181238
0.00179016
0.00176338
0.00173106
0.00169142
0.00164098
0.00158372
0.0015168
0.00143319
0.00130969
0.00104748
0.000876617
0.000741714
0.000602155
0.000422243
0.00138447
0.00138559
0.00138784
0.00139119
0.00139564
0.00140118
0.00140778
0.00141542
0.00142407
0.00143371
0.0014443
0.00145582
0.00146822
0.00148148
0.00149554
0.00151037
0.00152592
0.00154214
0.00155897
0.00157636
0.00159424
0.00161254
0.00163117
0.00165004
0.00166903
0.00168803
0.00170689
0.00172543
0.00174345
0.00176069
0.00177686
0.00179229
0.00180686
0.00182044
0.00183284
0.0018438
0.0018533
0.00186117
0.00186716
0.00186968
0.00186881
0.00186461
0.00185711
0.00184629
0.00183205
0.00181421
0.00179245
0.00176622
0.00173455
0.00169574
0.00164641
0.00159037
0.00152449
0.00144163
0.00131895
0.0010577
0.000886008
0.000749348
0.00060963
0.000432693
0.00136864
0.00136983
0.00137221
0.00137577
0.00138048
0.00138633
0.00139329
0.00140133
0.00141043
0.00142054
0.00143164
0.00144368
0.00145662
0.00147043
0.00148506
0.00150046
0.00151659
0.00153339
0.0015508
0.00156876
0.00158721
0.00160607
0.00162526
0.00164467
0.0016642
0.00168372
0.00170308
0.00172211
0.00174059
0.00175828
0.00177486
0.00179068
0.00180561
0.0018195
0.00183216
0.00184333
0.00185299
0.00186095
0.00186697
0.00186953
0.00186874
0.00186466
0.00185731
0.00184667
0.00183267
0.00181511
0.00179366
0.00176775
0.00173642
0.00169806
0.00164991
0.00159479
0.00152903
0.00144519
0.00132155
0.00106579
0.000895288
0.000757191
0.000617852
0.000443176
0.00135136
0.00135264
0.00135519
0.00135899
0.00136402
0.00137026
0.00137765
0.00138618
0.0013958
0.00140646
0.00141813
0.00143076
0.00144431
0.00145873
0.00147397
0.00148999
0.00150673
0.00152414
0.00154217
0.00156073
0.00157977
0.00159922
0.00161897
0.00163894
0.00165902
0.00167907
0.00169894
0.00171846
0.00173741
0.00175554
0.00177255
0.00178876
0.00180405
0.00181825
0.00183116
0.00184253
0.00185233
0.00186037
0.00186639
0.00186897
0.00186821
0.00186418
0.00185692
0.00184643
0.00183259
0.00181523
0.00179396
0.00176812
0.00173655
0.00169706
0.00165125
0.00159684
0.00152946
0.00143975
0.00130498
0.00106752
0.000903144
0.000764933
0.000627614
0.000453509
0.00133246
0.00133386
0.00133664
0.00134078
0.00134623
0.00135295
0.00136089
0.00137
0.00138023
0.00139153
0.00140385
0.00141714
0.00143136
0.00144644
0.00146235
0.00147903
0.00149643
0.00151448
0.00153314
0.00155233
0.00157198
0.00159202
0.00161236
0.0016329
0.00165352
0.00167411
0.00169449
0.0017145
0.00173392
0.00175251
0.00176994
0.00178654
0.00180217
0.00181668
0.00182986
0.00184142
0.00185136
0.00185944
0.00186541
0.00186793
0.00186713
0.00186309
0.00185587
0.00184544
0.00183174
0.00181454
0.00179349
0.00176793
0.00173675
0.00169808
0.00165302
0.00159845
0.00152779
0.00142382
0.0012304
0.00106062
0.000909587
0.000772142
0.000637519
0.000463611
0.00131155
0.00131313
0.00131628
0.00132093
0.00132699
0.00133437
0.001343
0.00135283
0.00136379
0.00137582
0.00138887
0.00140289
0.00141783
0.00143364
0.00145025
0.00146763
0.00148571
0.00150444
0.00152375
0.00154359
0.00156387
0.00158452
0.00160545
0.00162656
0.00164774
0.00166886
0.00168976
0.00171026
0.00173015
0.00174917
0.00176703
0.00178402
0.00180002
0.00181485
0.00182831
0.0018401
0.0018502
0.00185835
0.00186418
0.00186654
0.00186559
0.00186146
0.00185418
0.00184376
0.0018301
0.00181298
0.00179197
0.00176633
0.00173468
0.0016978
0.00165424
0.00160116
0.00153212
0.00143013
0.00123958
0.00107042
0.000917582
0.000778867
0.000647381
0.000473493
0.00128787
0.00128976
0.00129357
0.00129931
0.00130632
0.00131461
0.00132412
0.0013348
0.00134659
0.00135944
0.00137329
0.0013881
0.00140381
0.00142037
0.00143773
0.00145584
0.00147463
0.00149406
0.00151405
0.00153454
0.00155546
0.00157673
0.00159826
0.00161995
0.00164169
0.00166334
0.00168475
0.00170574
0.00172609
0.00174556
0.00176384
0.00178122
0.00179759
0.00181277
0.00182655
0.00183867
0.00184912
0.00185772
0.00186291
0.00186482
0.00186355
0.0018592
0.00185179
0.00184132
0.00182767
0.00181062
0.00178975
0.00176433
0.00173303
0.00169667
0.00165378
0.00160153
0.00153367
0.00143377
0.00124773
0.00108015
0.000925727
0.00078558
0.000657466
0.000483147
0.00126663
0.00126848
0.00127217
0.0012777
0.00128506
0.00129426
0.00130463
0.00131617
0.00132881
0.0013425
0.00135719
0.00137282
0.00138934
0.00140669
0.00142483
0.00144369
0.00146321
0.00148335
0.00150403
0.0015252
0.00154677
0.00156867
0.00159081
0.00161308
0.00163538
0.00165756
0.00167948
0.00170096
0.00172177
0.00174167
0.00176036
0.00177813
0.00179483
0.00181032
0.00182435
0.00183664
0.00184716
0.00185559
0.00186054
0.00186221
0.00186073
0.0018562
0.00184866
0.00183809
0.00182437
0.00180727
0.00178636
0.00176093
0.00172981
0.00169365
0.00165086
0.00159857
0.0015307
0.00143191
0.00125215
0.00108838
0.000933429
0.000791986
0.000667723
0.000492341
0.00124636
0.00124819
0.00125184
0.0012573
0.00126456
0.00127358
0.00128435
0.00129684
0.00131039
0.00132498
0.00134056
0.00135706
0.00137443
0.00139261
0.00141154
0.00143118
0.00145146
0.00147233
0.00149373
0.00151558
0.00153781
0.00156035
0.0015831
0.00160596
0.00162882
0.00165154
0.00167397
0.00169592
0.00171719
0.00173752
0.00175661
0.00177475
0.00179181
0.00180763
0.00182202
0.00183474
0.00184582
0.00185349
0.0018579
0.00185915
0.00185737
0.0018526
0.00184488
0.00183416
0.00182028
0.00180298
0.00178174
0.00175565
0.00172501
0.00168887
0.00164553
0.00159174
0.00152091
0.00141865
0.00125057
0.00109421
0.000940446
0.000798004
0.000678329
0.000501802
0.00122651
0.00122835
0.00123203
0.00123753
0.00124483
0.00125389
0.00126469
0.00127715
0.00129124
0.00130687
0.00132343
0.00134086
0.00135911
0.00137814
0.0013979
0.00141834
0.00143939
0.00146101
0.00148313
0.00150568
0.00152859
0.00155177
0.00157514
0.0015986
0.00162202
0.00164528
0.00166821
0.00169064
0.00171235
0.00173308
0.00175255
0.00177101
0.00178833
0.00180434
0.00181881
0.00183162
0.0018426
0.00185008
0.00185427
0.00185531
0.00185333
0.00184839
0.00184052
0.00182967
0.0018157
0.0017983
0.00177695
0.00175072
0.00171989
0.00168334
0.00163893
0.0015823
0.00150354
0.00137632
0.00124193
0.00109785
0.000946344
0.000803561
0.000689373
0.000511707
0.00120673
0.00120861
0.00121236
0.00121796
0.00122539
0.00123462
0.00124562
0.00125832
0.00127267
0.00128861
0.00130605
0.00132434
0.00134346
0.00136333
0.00138391
0.00140515
0.00142698
0.00144936
0.00147221
0.00149548
0.00151907
0.00154292
0.00156692
0.00159098
0.00161498
0.00163878
0.00166222
0.00168513
0.00170729
0.00172844
0.0017483
0.00176712
0.00178476
0.00180107
0.00181584
0.00182902
0.00183946
0.00184652
0.00185036
0.00185112
0.00184888
0.00184373
0.00183566
0.00182464
0.00181051
0.00179296
0.00177146
0.00174506
0.00171407
0.00167734
0.00163275
0.00157609
0.00149805
0.00137406
0.0012439
0.00110284
0.00095179
0.000808758
0.000701168
0.000523391
0.00118682
0.00118874
0.00119256
0.00119828
0.00120586
0.00121528
0.00122649
0.00123944
0.00125408
0.00127032
0.00128809
0.0013073
0.00132729
0.00134803
0.00136947
0.00139153
0.00141417
0.00143733
0.00146094
0.00148493
0.00150923
0.00153375
0.0015584
0.00158308
0.00160766
0.00163202
0.00165599
0.00167938
0.001702
0.00172357
0.00174381
0.00176296
0.00178087
0.00179735
0.00181221
0.00182532
0.00183557
0.00184242
0.00184604
0.00184656
0.0018441
0.00183872
0.00183044
0.0018192
0.00180484
0.00178706
0.00176529
0.00173857
0.00170717
0.00166982
0.00162422
0.00156608
0.00148691
0.00136868
0.00124453
0.00110741
0.000957282
0.000814071
0.000713455
0.000537814
0.00116671
0.00116866
0.00117257
0.0011784
0.00118614
0.00119575
0.0012072
0.00122041
0.00123534
0.00125191
0.00127003
0.00128961
0.00131054
0.00133218
0.00135449
0.00137741
0.00140088
0.00142485
0.00144923
0.00147398
0.001499
0.00152421
0.00154953
0.00157485
0.00160004
0.00162497
0.00164948
0.00167339
0.00169648
0.0017185
0.00173917
0.0017587
0.00177694
0.00179374
0.0018089
0.00182172
0.00183168
0.00183827
0.00184164
0.00184192
0.00183922
0.00183358
0.00182504
0.00181354
0.00179892
0.00178085
0.00175877
0.00173169
0.00169979
0.00166158
0.00161417
0.00155168
0.00146099
0.00135947
0.00124429
0.00111194
0.000963278
0.000821174
0.000726436
0.000556018
0.00114639
0.00114839
0.00115237
0.00115833
0.00116622
0.00117603
0.0011877
0.00120119
0.00121642
0.00123332
0.0012518
0.00127177
0.00129311
0.00131569
0.00133891
0.00136271
0.00138703
0.00141182
0.001437
0.00146251
0.00148827
0.0015142
0.0015402
0.00156618
0.001592
0.00161754
0.00164262
0.00166707
0.00169067
0.00171316
0.00173427
0.00175416
0.00177269
0.00178968
0.00180492
0.00181772
0.0018276
0.00183406
0.00183727
0.00183736
0.00183443
0.00182855
0.00181975
0.00180795
0.00179303
0.00177465
0.00175228
0.00172494
0.00169288
0.00165464
0.00160743
0.00154563
0.0014568
0.00135828
0.00124665
0.00111765
0.000970602
0.000829832
0.000740031
0.000578841
0.00112585
0.00112788
0.00113195
0.00113803
0.00114609
0.00115609
0.001168
0.00118175
0.00119728
0.00121452
0.00123337
0.00125373
0.00127548
0.00129851
0.00132264
0.00134733
0.00137251
0.00139812
0.00142409
0.00145037
0.00147687
0.00150352
0.00153024
0.00155691
0.00158341
0.0016096
0.00163531
0.00166036
0.00168453
0.00170756
0.00172919
0.00174954
0.00176846
0.0017858
0.00180106
0.00181386
0.00182372
0.00183012
0.00183323
0.00183318
0.00183006
0.00182396
0.00181489
0.0018028
0.00178754
0.00176881
0.00174608
0.00171842
0.00168609
0.00164772
0.00160069
0.00153976
0.00145348
0.00135851
0.00125117
0.00112652
0.000982148
0.000841812
0.000755514
0.00060531
0.00110507
0.00110715
0.00111129
0.00111749
0.0011257
0.0011359
0.00114803
0.00116205
0.00117787
0.00119543
0.00121464
0.00123539
0.00125756
0.00128102
0.00130563
0.00133121
0.00135723
0.00138365
0.00141038
0.00143739
0.0014646
0.00149195
0.00151937
0.00154675
0.00157398
0.0016009
0.00162734
0.00165308
0.00167791
0.00170156
0.00172377
0.00174462
0.00176395
0.00178159
0.00179709
0.00181009
0.00182011
0.00182662
0.00182976
0.00182967
0.00182647
0.00182021
0.00181094
0.00179859
0.00178305
0.00176401
0.00174096
0.00171301
0.0016803
0.00164169
0.00159483
0.00153502
0.00145213
0.00136163
0.0012598
0.00114126
0.0010013
0.000858789
0.000773364
0.000633736
0.00108408
0.0010862
0.00109041
0.00109671
0.00110507
0.00111545
0.00112779
0.00114205
0.00115815
0.00117601
0.00119555
0.00121666
0.00123922
0.00126309
0.00128814
0.00131419
0.00134105
0.00136824
0.00139569
0.00142336
0.00145117
0.00147905
0.00150717
0.00153535
0.00156344
0.00159125
0.00161856
0.00164516
0.00167077
0.0016951
0.00171799
0.00173944
0.00175932
0.00177733
0.0017932
0.00180656
0.00181696
0.00182377
0.00182713
0.00182719
0.00182406
0.00181781
0.00180846
0.00179599
0.00178028
0.00176107
0.00173795
0.0017102
0.00167661
0.00163753
0.00159077
0.00153215
0.0014529
0.00136709
0.00127142
0.00116051
0.00102731
0.0008828
0.000792551
0.000662659
0.00106291
0.00106506
0.00106934
0.00107573
0.00108421
0.00109474
0.00110727
0.00112174
0.00113808
0.00115622
0.00117606
0.00119749
0.00122041
0.00124466
0.00127011
0.00129658
0.00132389
0.00135182
0.00137993
0.00140814
0.00143676
0.00146564
0.00149467
0.0015237
0.00155258
0.00158115
0.00160921
0.00163655
0.00166292
0.00168804
0.00171163
0.00173373
0.0017542
0.00177279
0.00178923
0.00180319
0.00181426
0.00182166
0.00182554
0.00182604
0.00182327
0.00181728
0.0018081
0.00179568
0.00177989
0.00176049
0.00173704
0.00170887
0.00167485
0.00163536
0.00158835
0.00153022
0.00145374
0.00137125
0.00128005
0.00117582
0.00105245
0.000914275
0.000815498
0.000691007
0.00104163
0.00104379
0.00104812
0.00105458
0.00106316
0.0010738
0.00108648
0.00110112
0.00111767
0.00113604
0.00115614
0.00117788
0.00120112
0.00122574
0.00125157
0.00127845
0.00130619
0.00133456
0.00136333
0.00139248
0.00142193
0.00145158
0.00148132
0.00151104
0.0015406
0.00156984
0.00159858
0.00162663
0.00165374
0.00167966
0.00170412
0.00172705
0.00174832
0.00176772
0.00178501
0.00179989
0.00181201
0.00182043
0.00182528
0.00182669
0.00182474
0.00181951
0.00181101
0.00179919
0.00178393
0.00176494
0.0017418
0.00171381
0.00167985
0.00164068
0.00159387
0.00153637
0.00146291
0.00138204
0.00129274
0.00119269
0.0010794
0.00095647
0.000846486
0.000720821
0.00102014
0.00102232
0.00102667
0.00103316
0.00104179
0.0010525
0.00106526
0.00108001
0.0010967
0.00111524
0.00113556
0.00115754
0.00118108
0.00120604
0.00123227
0.0012596
0.00128785
0.00131679
0.00134614
0.00137585
0.00140584
0.00143602
0.0014663
0.00149656
0.00152668
0.00155652
0.00158591
0.00161466
0.00164255
0.00166933
0.00169478
0.00171867
0.00174092
0.00176134
0.00177971
0.00179577
0.00180919
0.00181958
0.00182628
0.00182947
0.00182928
0.00182583
0.00181916
0.00180931
0.00179618
0.0017796
0.00175925
0.0017346
0.00170483
0.00166879
0.00162757
0.00157715
0.00151479
0.0014375
0.00135385
0.00126376
0.00116453
0.00105902
0.000939348
0.000749559
0.000999608
0.00100193
0.00100657
0.0010135
0.0010227
0.00103414
0.00104777
0.00106355
0.00108141
0.00110127
0.00112304
0.00114661
0.00117185
0.00119862
0.00122674
0.00125604
0.00128628
0.00131697
0.00134805
0.00137948
0.00141115
0.001443
0.0014749
0.00150674
0.00153836
0.00156961
0.0016003
0.00163019
0.00165903
0.00168653
0.00171238
0.00173655
0.00175881
0.00177894
0.00179667
0.00181167
0.00182353
0.00183131
0.00183526
0.00183556
0.0018324
0.00182591
0.00181615
0.0018031
0.00178663
0.00176645
0.00174211
0.00171289
0.00167766
0.00164028
0.00159366
0.00153235
0.0014493
0.00136054
0.00126603
0.00116629
0.00106156
0.000953647
0.000866078
0.000711645
0.000980284
0.000982763
0.000987713
0.000995119
0.00100496
0.0010172
0.00103181
0.00104873
0.0010679
0.00108924
0.00111265
0.00113802
0.0011652
0.00119402
0.0012243
0.0012558
0.0012878
0.00132026
0.00135312
0.00138631
0.00141974
0.0014533
0.00148687
0.00152031
0.00155343
0.00158605
0.00161793
0.00164883
0.00167844
0.00170639
0.00173234
0.00175633
0.0017781
0.00179736
0.00181376
0.00182686
0.00183548
0.00183993
0.00184047
0.00183736
0.00183078
0.0018209
0.00180778
0.00179134
0.00177138
0.00174744
0.00171879
0.00168441
0.00164797
0.00161163
0.00156122
0.00148583
0.00140284
0.00131375
0.00122029
0.00112446
0.00102875
0.000939979
0.000868029
0.000720384
0.000961986
0.000964606
0.000969839
0.000977674
0.000988095
0.00100108
0.00101659
0.00103458
0.00105501
0.00107779
0.00110283
0.00112999
0.00115914
0.00119008
0.00122257
0.00125564
0.00128925
0.00132337
0.00135793
0.00139283
0.00142797
0.00146321
0.00149839
0.00153334
0.00156787
0.00160174
0.00163471
0.00166647
0.00169668
0.00172495
0.00175084
0.00177454
0.00179575
0.00181411
0.00182918
0.00183931
0.00184488
0.00184624
0.00184372
0.00183761
0.00182815
0.00181551
0.00179975
0.00178077
0.00175821
0.00173126
0.00169844
0.00166371
0.00162986
0.00160024
0.00155242
0.00147195
0.00138574
0.00129455
0.00119974
0.00110378
0.00101121
0.000933193
0.000870815
0.000730426
0.000944845
0.000947579
0.000953044
0.000961232
0.000972134
0.000985735
0.00100202
0.00102095
0.0010425
0.00106661
0.00109318
0.00112211
0.00115323
0.00118631
0.00122009
0.00125458
0.00128973
0.0013255
0.00136176
0.00139841
0.00143528
0.0014722
0.00150898
0.0015454
0.00158123
0.00161621
0.00165008
0.00168251
0.00171313
0.0017415
0.00176715
0.00179041
0.00181098
0.00182854
0.00184077
0.00184806
0.00185078
0.0018493
0.001844
0.00183519
0.00182317
0.00180816
0.00179027
0.00176946
0.0017454
0.00171731
0.00168359
0.00165108
0.00162281
0.00160213
0.00156004
0.001479
0.00139118
0.00129663
0.001197
0.00109621
0.00100134
0.000927208
0.000872102
0.000743417
0.000929041
0.000931862
0.000937501
0.000945953
0.000957211
0.00097127
0.000988129
0.00100779
0.00103025
0.00105548
0.00108345
0.00111407
0.00114717
0.00118117
0.00121614
0.00125206
0.00128884
0.00132639
0.00136452
0.00140306
0.00144179
0.00148049
0.00151889
0.00155674
0.00159378
0.00162972
0.00166428
0.00169714
0.00172793
0.00175619
0.00178139
0.00180394
0.00182342
0.00183926
0.00184939
0.00185436
0.00185466
0.00185073
0.00184298
0.00183178
0.00181744
0.00180025
0.00178037
0.00175785
0.00173247
0.00170367
0.00167049
0.00164245
0.00162291
0.00161585
0.00158289
0.00150265
0.00141338
0.00131328
0.00120409
0.00109118
0.000984612
0.000905158
0.000856526
0.000746731
0.00091476
0.000917653
0.000923435
0.000932089
0.000943597
0.000957944
0.000975126
0.000995178
0.00101821
0.00104423
0.00107329
0.00110547
0.00113896
0.00117387
0.00121017
0.00124777
0.00128651
0.00132617
0.00136648
0.0014072
0.00144804
0.00148869
0.00152883
0.00156812
0.00160623
0.00164286
0.00167778
0.00171071
0.00174136
0.00176933
0.00179414
0.0018163
0.0018355
0.00184869
0.00185635
0.00185895
0.00185693
0.00185069
0.00184065
0.00182714
0.0018105
0.001791
0.00176886
0.00174415
0.00171657
0.00168492
0.001657
0.00163694
0.00162956
0.00164045
0.00162107
0.00154881
0.00145916
0.00134946
0.00122313
0.00108709
0.000951868
0.000840461
0.000775774
0.000694879
0.000902073
0.000905059
0.000911017
0.000919914
0.000931696
0.000946281
0.000963546
0.000983392
0.00100657
0.00103276
0.00106175
0.00109338
0.0011274
0.00116361
0.00120178
0.00124164
0.0012829
0.0013252
0.00136811
0.00141135
0.0014546
0.0014975
0.00153963
0.00158048
0.00161947
0.00165631
0.00169092
0.0017232
0.00175303
0.00178018
0.00180475
0.0018259
0.00184358
0.00185512
0.00186111
0.00186196
0.0018581
0.00184994
0.00183788
0.00182225
0.00180332
0.00178136
0.00175664
0.00172971
0.00170098
0.00166964
0.00164526
0.00163233
0.00163737
0.00167945
0.00167502
0.00162519
0.00153452
0.00140914
0.00125585
0.00108027
0.000883918
0.000660521
0.000403655
0.000186036
0.000890874
0.000893989
0.000900214
0.000909536
0.000921934
0.000937381
0.000955843
0.000977288
0.00100168
0.00102893
0.00105897
0.00109165
0.00112683
0.00116433
0.00120391
0.0012453
0.00128815
0.00133207
0.00137654
0.0014213
0.00146603
0.00151033
0.00155371
0.00159562
0.00163539
0.00167269
0.00170744
0.00173946
0.00176856
0.00179444
0.00181673
0.00183526
0.0018497
0.00185966
0.00186468
0.00186413
0.00185867
0.0018488
0.00183489
0.00181724
0.00179596
0.00177101
0.00174205
0.00171066
0.00167973
0.00165263
0.00163358
0.00162773
0.00164194
0.00168774
0.00168052
0.00162435
0.0015257
0.00139259
0.00123356
0.00105582
0.000862289
0.000647382
0.000402355
0.000191055
0.000886022
0.000889228
0.000895638
0.000905241
0.000918017
0.000933942
0.000952981
0.000975091
0.00100022
0.00102828
0.00105921
0.00109286
0.00112911
0.00116778
0.00120862
0.00125138
0.00129571
0.00134087
0.00138663
0.00143269
0.0014787
0.00152425
0.0015688
0.00161175
0.00165232
0.00169017
0.00172524
0.00175739
0.00178639
0.00181192
0.00183363
0.00185135
0.00186478
0.00187353
0.0018771
0.00187478
0.00186756
0.00185615
0.00184076
0.00182164
0.00179887
0.0017724
0.00174162
0.00170934
0.00167882
0.00165403
0.00163981
0.00164184
0.00166512
0.0017073
0.00168995
0.00162277
0.00151444
0.00137382
0.00120987
0.00103047
0.000839731
0.000633939
0.000401766
0.000196195
0.000883553
0.000886836
0.000893398
0.000903229
0.000916312
0.000932619
0.000952118
0.000974766
0.00100051
0.00102927
0.00106097
0.00109549
0.0011327
0.00117241
0.00121439
0.00125836
0.00130392
0.0013503
0.00139729
0.00144459
0.00149185
0.00153861
0.00158433
0.00162837
0.00166994
0.00170813
0.00174345
0.00177573
0.0018047
0.00183001
0.00185125
0.00186829
0.0018808
0.00188831
0.00189022
0.00188632
0.00187741
0.00186426
0.00184755
0.00182701
0.0018027
0.00177443
0.00174232
0.00170945
0.00167949
0.00165722
0.00164927
0.00166577
0.00172345
0.00173454
0.00169874
0.00161905
0.00150128
0.00135354
0.0011851
0.00100457
0.000817115
0.000619717
0.000399809
0.000201156
0.000882618
0.000885972
0.000892676
0.00090272
0.000916085
0.000932747
0.000952671
0.000975813
0.00100212
0.00103152
0.00106393
0.00109924
0.00113731
0.00117799
0.00122108
0.00126635
0.00131286
0.00136032
0.00140847
0.00145696
0.00150539
0.0015533
0.0016001
0.00164509
0.00168742
0.00172609
0.00176173
0.00179417
0.00182312
0.00184821
0.00186898
0.00188537
0.00189696
0.00190328
0.00190359
0.00189803
0.00188746
0.00187269
0.00185447
0.00183254
0.00180675
0.00177673
0.00174332
0.00170974
0.00167979
0.00165828
0.00165174
0.00167007
0.00173032
0.0017385
0.00169671
0.00160987
0.00148522
0.00133182
0.00115964
0.000978026
0.000793286
0.000604281
0.000398296
0.000205908
0.000882974
0.000886397
0.00089324
0.000903494
0.000917137
0.000934145
0.000954483
0.000978106
0.00100496
0.00103496
0.00106804
0.00110406
0.00114289
0.00118435
0.00122823
0.0012742
0.00132206
0.0013708
0.00142019
0.00146989
0.00151951
0.00156855
0.00161639
0.00166228
0.00170531
0.0017444
0.0017803
0.00181285
0.00184175
0.00186658
0.00188683
0.0019025
0.00191315
0.0019182
0.00191683
0.00190955
0.00189726
0.00188076
0.00186075
0.00183778
0.00181072
0.00177906
0.0017446
0.0017108
0.00168173
0.00166239
0.00165912
0.00168051
0.00174085
0.00174378
0.00169433
0.00159943
0.00146744
0.00130814
0.00113225
0.000949945
0.000768244
0.000587201
0.000395153
0.000210116
0.000884504
0.000887998
0.000894983
0.000905448
0.000919374
0.000936733
0.00095749
0.000981598
0.001009
0.00103962
0.00107336
0.0011101
0.0011497
0.00119196
0.00123666
0.00128351
0.00133236
0.00138222
0.00143276
0.00148364
0.00153441
0.00158455
0.00163339
0.00168014
0.00172381
0.00176323
0.00179932
0.00183191
0.00186068
0.00188518
0.00190484
0.00191972
0.00192933
0.00193302
0.00192984
0.0019208
0.00190682
0.00188873
0.00186723
0.00184293
0.00181457
0.00178114
0.00174575
0.00171209
0.00168472
0.0016695
0.00167376
0.00170455
0.0017593
0.00175111
0.00169046
0.00158595
0.00144646
0.00128191
0.00110302
0.000920178
0.000741208
0.000567971
0.000390292
0.000213441
0.000887119
0.000890687
0.000897819
0.000908504
0.000922722
0.000940444
0.000961634
0.000986244
0.00101421
0.00104546
0.00107989
0.00111737
0.00115775
0.00120084
0.00124623
0.00129378
0.00134328
0.00139445
0.00144623
0.0014983
0.00155023
0.00160144
0.00165126
0.00169882
0.00174307
0.00178272
0.0018189
0.00185144
0.00188
0.00190408
0.00192305
0.00193703
0.00194543
0.00194737
0.00194235
0.00193153
0.00191585
0.00189612
0.001873
0.00184706
0.00181697
0.00178226
0.00174619
0.00171275
0.00168718
0.00167718
0.00169524
0.00176331
0.00178361
0.00175545
0.00168157
0.00156747
0.00142087
0.00125144
0.00107001
0.000887295
0.000711664
0.000545996
0.000381632
0.00021544
0.000890742
0.000894387
0.000901674
0.00091259
0.000927115
0.000945218
0.000966862
0.000991998
0.00102056
0.00105247
0.00108761
0.00112585
0.00116701
0.00121087
0.00125705
0.00130541
0.00135579
0.00140795
0.00146085
0.00151406
0.00156711
0.00161939
0.00167015
0.00171847
0.00176321
0.00180297
0.00183913
0.0018715
0.00189974
0.00192331
0.00194149
0.00195456
0.00196194
0.00196147
0.00195435
0.00194163
0.00192424
0.00190288
0.00187805
0.00184998
0.00181862
0.00178285
0.00174619
0.00171273
0.00168766
0.00167839
0.00169702
0.00176598
0.00178168
0.00174593
0.00166354
0.00154161
0.00138902
0.00121597
0.00103324
0.000851345
0.000679064
0.000520769
0.000369838
0.000215866
0.000895303
0.00089903
0.000906482
0.000917643
0.000932493
0.000951
0.000973125
0.000998818
0.00102801
0.00106062
0.00109654
0.00113562
0.00117765
0.00122216
0.00126905
0.00131819
0.00136936
0.00142227
0.00147649
0.00153093
0.00158514
0.00163848
0.00169017
0.0017392
0.00178435
0.00182408
0.00186006
0.00189212
0.00191989
0.00194279
0.00195998
0.00197175
0.00197708
0.00197447
0.00196533
0.00195081
0.00193181
0.00190902
0.00188286
0.00185342
0.00182016
0.0017832
0.00174633
0.0017138
0.00169084
0.00168441
0.0017049
0.00177172
0.00177933
0.00173297
0.00163998
0.00150905
0.00135002
0.00117345
0.000989958
0.000809821
0.000641909
0.000491413
0.000353702
0.00021407
0.000900738
0.000904553
0.000912181
0.000923606
0.000938803
0.000957741
0.00098038
0.00100667
0.00103653
0.00106989
0.00110663
0.00114664
0.00118929
0.00123451
0.0012822
0.00133222
0.00138434
0.00143825
0.00149354
0.00154914
0.00160447
0.00165886
0.00171143
0.00176113
0.00180658
0.00184611
0.00188175
0.00191331
0.00194042
0.00196254
0.00197882
0.00198977
0.00199191
0.00198666
0.00197529
0.00195887
0.00193824
0.00191403
0.00188667
0.00185645
0.00182062
0.00178255
0.0017461
0.00171587
0.0016977
0.00169913
0.00172871
0.00178583
0.00177719
0.00171455
0.00160769
0.00146638
0.00130088
0.00112156
0.000938621
0.000761682
0.000599162
0.000456976
0.000332751
0.00020935
0.000906988
0.0009109
0.000918718
0.000930426
0.000945999
0.000965404
0.000988597
0.00101552
0.0010461
0.00108022
0.00111775
0.0011585
0.00120189
0.00124791
0.00129649
0.00134745
0.00140056
0.00145547
0.00151171
0.00156863
0.00162515
0.00168058
0.00173402
0.0017843
0.00182996
0.00186912
0.00190425
0.00193507
0.00196117
0.00198205
0.0019971
0.00200555
0.00200504
0.00199735
0.00198385
0.00196558
0.00194328
0.00191746
0.00188833
0.00185587
0.00181853
0.00178009
0.00174487
0.00171824
0.00170754
0.00172437
0.00179223
0.00180662
0.00176937
0.00168574
0.00156313
0.00141061
0.00123831
0.00105655
0.000875123
0.000702827
0.000547073
0.000413897
0.000303448
0.000198983
0.000914
0.000918016
0.000926041
0.000938056
0.000954036
0.000973946
0.000997745
0.00102537
0.00105675
0.00109177
0.00113025
0.00117152
0.00121559
0.00126243
0.00131194
0.00136393
0.00141815
0.00147421
0.00153162
0.00158971
0.00164734
0.00170376
0.00175799
0.00180875
0.00185447
0.00189312
0.00192765
0.00195778
0.00198305
0.00200309
0.00201698
0.00202099
0.00201704
0.00200665
0.00199098
0.0019709
0.001947
0.00191959
0.00188866
0.00185359
0.00181471
0.00177618
0.00174283
0.00172072
0.00171763
0.00174293
0.00180161
0.00179812
0.00174136
0.00163962
0.00150199
0.0013385
0.00115991
0.000976745
0.000798426
0.000632659
0.000485512
0.000362355
0.000264915
0.000179739
0.000921785
0.000925916
0.000934165
0.000946514
0.000962933
0.000983389
0.00100784
0.00103623
0.00106848
0.00110454
0.00114351
0.00118544
0.00123031
0.00127807
0.00132861
0.00138173
0.00143713
0.00149444
0.00155308
0.00161236
0.00167112
0.00172852
0.00178344
0.0018345
0.00188003
0.00191799
0.00195173
0.00198092
0.00200524
0.00202486
0.00203365
0.00203378
0.00202682
0.00201405
0.00199642
0.00197466
0.00194919
0.00192021
0.00188773
0.00184927
0.00180878
0.00177068
0.00174059
0.00172616
0.00173898
0.00179858
0.00181586
0.00178137
0.00169839
0.00157425
0.00141851
0.00124201
0.00105603
0.000871104
0.000696376
0.000538769
0.000403011
0.00029217
0.000208177
0.000141763
0.000930653
0.000934731
0.000942879
0.000955076
0.000971296
0.000991507
0.00101566
0.00104369
0.0010755
0.00111093
0.00114918
0.00119036
0.00123448
0.00128152
0.00133137
0.00138386
0.00143873
0.00149561
0.00155402
0.00161328
0.00167252
0.00173064
0.00178658
0.00183894
0.00188602
0.00192563
0.00196008
0.00198966
0.00201442
0.00203479
0.00204514
0.0020474
0.00204257
0.00203186
0.00201624
0.00199642
0.00197282
0.00194548
0.00191476
0.00187781
0.00183721
0.0017967
0.00176096
0.00173576
0.00172857
0.00174918
0.00180979
0.00180567
0.00174728
0.00164249
0.00150055
0.00133179
0.00114712
0.00095763
0.000773553
0.000603265
0.000453054
0.000326844
0.000227113
0.000151842
0.000940152
0.000944157
0.00095216
0.000964146
0.00098009
0.000999964
0.00102373
0.00105135
0.00108279
0.00111709
0.00115432
0.00119452
0.00123769
0.0012838
0.00133275
0.00138439
0.00143848
0.00149472
0.00155268
0.0016118
0.00167136
0.00173028
0.00178744
0.00184154
0.001891
0.00193394
0.00196815
0.00199764
0.00202185
0.0020403
0.00205326
0.00205946
0.00205735
0.00204921
0.00203598
0.0020185
0.00199753
0.00197189
0.00194192
0.0019076
0.00186717
0.00182476
0.00178488
0.00175305
0.00173679
0.0017476
0.00180556
0.00182459
0.00178939
0.00170348
0.00157556
0.00141549
0.00123363
0.00104079
0.000847822
0.000664586
0.000499499
0.000358672
0.000245199
0.000159392
0.00095032
0.00095426
0.000962136
0.000973933
0.000989629
0.00100919
0.00103257
0.00105967
0.00109038
0.00112384
0.00116021
0.00119954
0.00124186
0.00128713
0.00133525
0.00138609
0.00143942
0.00149498
0.0015524
0.00161108
0.00167084
0.00173077
0.00178913
0.00184472
0.00189605
0.00194119
0.00197765
0.00200834
0.00203343
0.00205391
0.00206898
0.00207755
0.00207802
0.00207152
0.0020594
0.00204258
0.00202174
0.00199737
0.00196846
0.00193534
0.00189536
0.00185185
0.00180886
0.00177123
0.00174501
0.00173794
0.00176005
0.00182405
0.00181151
0.00174017
0.00162284
0.00147
0.0012916
0.00109795
0.00089989
0.000708186
0.000532442
0.000380443
0.000256969
0.000164764
0.00096115