/*--------------------------------*- C++ -*----------------------------------*\
| =========                 |                                                 |
| \\      /  F ield         | OpenFOAM: The Open Source CFD Toolbox           |
|  \\    /   O peration     | Version:  v1906                                 |
|   \\  /    A nd           | Web:      www.OpenFOAM.com                      |
|    \\/     M anipulation  |                                                 |
\*---------------------------------------------------------------------------*/
FoamFile
{
    version     2.0;
    format      ascii;
    class       volScalarField;
    location    "2.83";
    object      pDyn;
}
// * * * * * * * * * * * * * * * * * * * * * * * * * * * * * * * * * * * * * //

dimensions      [1 -1 -2 0 0 0 0];


internalField   nonuniform List<scalar> 
26400
(
90.0825
90.0674
90.0509
90.0339
90.0165
89.9987
89.9801
89.96
89.9378
89.9126
89.8833
89.8498
89.8115
89.7683
89.7199
89.6662
89.607
89.5423
89.4717
89.395
89.3119
89.2225
89.1269
89.0244
88.9146
88.7976
88.6729
88.5402
88.3988
88.249
88.0894
87.9196
87.7375
87.5427
87.3342
87.1109
86.8699
86.6101
86.3291
86.024
85.6909
85.3255
84.922
84.474
83.9729
83.4076
82.7635
82.021
81.1542
80.1271
78.8898
77.3715
75.4595
73.0163
69.8674
65.8208
60.4802
53.4527
43.9135
28.8354
90.0627
90.049
90.0334
90.0169
89.9994
89.9814
89.9626
89.9419
89.9191
89.8935
89.8644
89.8309
89.7928
89.7499
89.7019
89.6486
89.5899
89.5255
89.4554
89.3791
89.2965
89.2077
89.1125
89.0104
88.901
88.7843
88.6599
88.5271
88.3857
88.2359
88.0762
87.9062
87.7237
87.5288
87.3199
87.0961
86.8552
86.5959
86.3154
86.0108
85.6784
85.3144
84.9135
84.4694
83.9736
83.4164
82.7844
82.0602
81.2192
80.2274
79.038
77.5683
75.7114
73.3189
70.1955
66.1179
60.6515
53.4151
43.6574
28.4634
90.0432
90.03
90.0152
89.9994
89.9827
89.9657
89.9478
89.9284
89.9066
89.8818
89.8532
89.8204
89.7833
89.7414
89.6943
89.6414
89.5831
89.5194
89.4498
89.3745
89.293
89.205
89.1106
89.0095
88.9012
88.7854
88.6619
88.5304
88.3905
88.241
88.0828
87.9131
87.7321
87.5382
87.3308
87.1086
86.8694
86.6112
86.3322
86.0292
85.6987
85.3368
84.9386
84.4979
84.0069
83.4556
82.8311
82.1162
81.2864
80.3081
79.134
77.6817
75.8452
73.4725
70.3584
66.2647
60.736
53.3901
43.5157
28.2625
90.004
89.9921
89.978
89.9626
89.9462
89.9291
89.9112
89.8916
89.8698
89.8454
89.8175
89.7856
89.7495
89.7085
89.6624
89.6112
89.5546
89.4924
89.4243
89.3504
89.2705
89.1844
89.0916
88.9921
88.8855
88.7714
88.6495
88.5194
88.3806
88.233
88.0756
87.9081
87.7285
87.5362
87.3302
87.1092
86.8716
86.6153
86.3386
86.0385
85.7113
85.3536
84.9604
84.5256
84.0417
83.4999
82.8878
82.1886
81.3797
80.4292
79.2901
77.883
76.1015
73.7868
70.7135
66.6028
60.9611
53.3933
43.2591
27.8662
89.9507
89.9393
89.9258
89.9111
89.8953
89.879
89.8617
89.8431
89.8223
89.7989
89.7723
89.7416
89.7069
89.6677
89.6235
89.5742
89.5194
89.4594
89.394
89.3225
89.2453
89.1618
89.0718
88.975
88.8711
88.7598
88.6405
88.5131
88.3771
88.2325
88.0782
87.9133
87.7364
87.547
87.3436
87.1257
86.8907
86.6374
86.3642
86.0675
85.7444
85.3909
85.0024
84.5732
84.0949
83.5602
82.9567
82.2684
81.4735
80.5421
79.4206
78.0394
76.2932
74.0224
70.9918
66.8722
61.144
53.4021
43.0578
27.5253
89.8728
89.862
89.849
89.8347
89.8195
89.8038
89.7872
89.7694
89.7493
89.7271
89.7018
89.673
89.6403
89.6033
89.5616
89.5149
89.4632
89.4064
89.3443
89.2765
89.2028
89.1228
89.0363
88.9432
88.843
88.7356
88.6205
88.497
88.3655
88.2246
88.0748
87.9137
87.7414
87.5559
87.357
87.1435
86.9126
86.6639
86.3954
86.1035
85.7854
85.4373
85.0546
84.6315
84.162
83.6369
83.045
82.3719
81.5968
80.6903
79.6018
78.265
76.578
74.3832
71.4486
67.3102
61.481
53.4966
42.8179
27.0602
89.7669
89.7571
89.7449
89.7315
89.7173
89.7025
89.6869
89.6705
89.6524
89.6323
89.6097
89.5837
89.5537
89.5195
89.481
89.4379
89.3899
89.337
89.2791
89.2158
89.1468
89.0718
88.9901
88.9021
88.8074
88.7055
88.5957
88.4779
88.3519
88.2171
88.073
87.9183
87.7519
87.5727
87.38
87.1724
86.9482
86.7059
86.4436
86.1582
85.8463
85.5046
85.1287
84.7131
84.2516
83.7355
83.1543
82.4939
81.7354
80.8436
79.7766
78.4702
76.8249
74.6845
71.8103
67.7081
61.8227
53.6138
42.5959
26.6138
89.6222
89.6131
89.6017
89.5888
89.5754
89.5619
89.5482
89.5338
89.5182
89.5008
89.4811
89.4586
89.4328
89.4032
89.3694
89.3311
89.2885
89.2409
89.1885
89.1312
89.0684
88.9997
88.9252
88.8445
88.7571
88.6627
88.561
88.4508
88.3323
88.2056
88.0696
87.9234
87.7655
87.5947
87.4104
87.2115
86.996
86.7624
86.5081
86.231
85.927
85.5937
85.2267
84.8205
84.369
83.864
83.2956
82.6506
81.9105
81.0422
80.0061
78.7413
77.1521
75.0849
72.2947
68.2572
62.3375
53.8804
42.4169
26.0904
89.4292
89.421
89.4112
89.4001
89.3884
89.3765
89.3648
89.3529
89.3404
89.3269
89.3114
89.2936
89.2728
89.2489
89.221
89.1892
89.1533
89.1128
89.0679
89.0183
88.9637
88.904
88.8385
88.7673
88.6892
88.6045
88.5126
88.4132
88.3057
88.1895
88.0647
87.929
87.7821
87.6226
87.4491
87.2612
87.0571
86.8349
86.5922
86.3262
86.0337
85.7116
85.3553
84.9597
84.519
84.0254
83.4692
82.8372
82.1117
81.2609
80.2481
79.0157
77.4724
75.4689
72.7591
68.8027
62.8915
54.2265
42.31
25.5265
89.1714
89.1643
89.1559
89.1469
89.1377
89.129
89.1206
89.1123
89.1036
89.0944
89.0842
89.0723
89.0581
89.0414
89.0214
88.9978
88.9706
88.9397
88.9046
88.8653
88.8215
88.7731
88.7195
88.6602
88.5948
88.5229
88.4443
88.3587
88.2649
88.163
88.0519
87.9307
87.7982
87.6535
87.4951
87.3224
87.133
86.9255
86.6972
86.4457
86.1677
85.8599
85.518
85.1372
84.7115
84.2329
83.693
83.079
82.3698
81.5408
80.5567
79.3636
77.8758
75.9495
73.3313
69.4798
63.6111
54.7411
42.2645
25.017
88.8329
88.8271
88.8205
88.814
88.808
88.8027
88.7987
88.7953
88.7921
88.7887
88.7849
88.7801
88.774
88.766
88.7557
88.7427
88.727
88.7083
88.6862
88.6604
88.6306
88.5967
88.5582
88.5146
88.4654
88.4105
88.3492
88.2812
88.2056
88.122
88.0298
87.9274
87.8141
87.6888
87.5505
87.3973
87.2281
87.0402
86.8316
86.5995
86.3405
86.051
85.7272
85.3635
84.9546
84.4931
83.9694
83.3717
82.6799
81.8705
80.9105
79.75
78.3117
76.4691
73.9191
70.1831
64.4156
55.4205
42.3689
24.5732
88.3866
88.382
88.3775
88.3737
88.3712
88.3704
88.3714
88.3741
88.3782
88.3827
88.3875
88.3923
88.3967
88.4001
88.4022
88.4026
88.4011
88.3976
88.3914
88.3825
88.3704
88.3549
88.3355
88.3119
88.2836
88.2504
88.2114
88.166
88.114
88.0544
87.9867
87.9096
87.8216
87.7221
87.6095
87.4818
87.34
87.1791
86.9972
86.7909
86.5572
86.2924
85.9926
85.6521
85.2656
84.8258
84.3231
83.7468
83.0763
82.2899
81.3564
80.2286
78.8335
77.0507
74.5897
70.9836
65.353
56.3054
42.7013
24.3591
87.8106
87.8072
87.8052
87.805
87.8067
87.8112
87.8185
87.8285
87.8411
87.8555
87.8711
87.8875
87.9047
87.9224
87.9396
87.9564
87.9725
87.9875
88.0011
88.013
88.023
88.0307
88.0357
88.0371
88.0352
88.0292
88.0186
88.0027
87.9807
87.9523
87.9162
87.8718
87.817
87.7511
87.673
87.5802
87.4732
87.3472
87.2002
87.0282
86.8285
86.5968
86.3288
86.0194
85.6625
85.2506
84.775
84.2239
83.5781
82.8165
81.9095
80.8122
79.4565
77.7253
75.3492
71.8795
66.4277
57.4297
43.3037
24.2798
87.0565
87.055
87.0559
87.0597
87.0668
87.0777
87.0925
87.1114
87.134
87.1598
87.1883
87.2188
87.2512
87.2852
87.3205
87.3568
87.3939
87.4314
87.4691
87.5062
87.5427
87.5782
87.6125
87.6452
87.6757
87.7036
87.7281
87.7488
87.7651
87.776
87.7811
87.7783
87.7671
87.7454
87.7121
87.6666
87.6073
87.5295
87.4307
87.3074
87.1564
86.9736
86.7544
86.4922
86.1816
85.8152
85.3839
84.8768
84.2747
83.5575
82.6975
81.6549
80.3697
78.6959
76.4168
73.1032
67.8714
59.07
44.7083
25.1386
86.1058
86.1057
86.1098
86.1183
86.1317
86.1503
86.1743
86.2037
86.2381
86.2774
86.3208
86.368
86.4188
86.4724
86.5289
86.5883
86.6499
86.7138
86.7795
86.8469
86.9155
86.9851
87.0552
87.1254
87.1954
87.2646
87.3323
87.3982
87.4615
87.5212
87.5772
87.6273
87.6703
87.7052
87.7304
87.7449
87.747
87.7317
87.6967
87.6384
87.5531
87.4364
87.2832
87.0876
86.8431
86.5421
86.1755
85.732
85.1927
84.538
83.7412
82.7648
81.5525
79.9666
77.8042
74.6593
69.6618
61.1027
46.7643
26.8806
84.8796
84.8814
84.889
84.9024
84.922
84.9484
84.9819
85.022
85.069
85.1222
85.1814
85.2461
85.3157
85.3902
85.4694
85.5532
85.6415
85.7338
85.8301
85.9302
86.0337
86.1405
86.25
86.3622
86.4766
86.5927
86.7101
86.8283
86.9464
87.064
87.1798
87.293
87.4016
87.5048
87.6014
87.69
87.7684
87.8326
87.8792
87.9045
87.9043
87.8742
87.8082
87.7001
87.5426
87.327
87.0431
86.6788
86.2144
85.6293
84.8967
83.9798
82.8252
81.3049
79.233
76.2349
71.4923
63.3386
49.3602
29.1466
83.3905
83.3943
83.4053
83.4237
83.45
83.4846
83.5279
83.5797
83.64
83.7085
83.7848
83.8684
83.9592
84.0568
84.1612
84.2723
84.3902
84.5144
84.645
84.782
84.9251
85.0742
85.2292
85.3897
85.5557
85.7269
85.9029
86.0829
86.2667
86.4536
86.643
86.8332
87.0231
87.2112
87.3966
87.5778
87.7527
87.9167
88.066
88.1973
88.3055
88.3851
88.4291
88.4296
88.3776
88.2622
88.0701
87.7861
87.3873
86.8485
86.1394
85.2206
84.0389
82.4763
80.3679
77.3893
72.8277
65.1552
51.7661
31.0446
81.5142
81.5191
81.5326
81.5549
81.586
81.6266
81.677
81.7373
81.8073
81.887
81.976
82.0739
82.1805
82.2958
82.4196
82.552
82.693
82.8428
83.0014
83.1689
83.3451
83.5301
83.7241
83.9271
84.139
84.3598
84.5895
84.8279
85.075
85.3303
85.5938
85.8637
86.14
86.4217
86.708
86.9979
87.2898
87.5799
87.8651
88.1416
88.4052
88.6506
88.871
89.0585
89.2021
89.291
89.3075
89.236
89.0539
88.7285
88.2234
87.4938
86.4852
85.0905
83.1735
80.4702
76.368
69.4353
57.028
35.5616
79.3531
79.359
79.3747
79.4003
79.4359
79.4821
79.5394
79.608
79.6877
79.7784
79.88
79.9922
80.115
80.2483
80.3922
80.5469
80.7127
80.8899
81.0788
81.2796
81.4927
81.7187
81.9577
82.2101
82.4766
82.7573
83.0529
83.364
83.6909
84.0351
84.3962
84.7748
85.1705
85.5846
86.0178
86.4707
86.9439
87.4366
87.9485
88.4792
89.0277
89.5928
90.1724
90.7633
91.3608
91.9586
92.5482
93.1174
93.65
94.1185
94.4882
94.7086
94.7295
94.469
93.8336
92.6238
90.2987
85.474
76.1591
56.1965
76.7357
76.7412
76.7564
76.7812
76.8158
76.8607
76.9164
76.9829
77.0603
77.1486
77.2474
77.3566
77.4764
77.6067
77.7476
77.8994
78.0623
78.2367
78.4231
78.6219
78.8337
79.0587
79.2977
79.5514
79.8204
80.1054
80.4076
80.7277
81.0671
81.427
81.8091
82.2141
82.6435
83.0995
83.5843
84.1005
84.6514
85.2387
85.8656
86.5354
87.2523
88.0204
88.8443
89.729
90.6796
91.701
92.798
93.973
95.2249
96.5442
97.9091
99.2958
100.762
102.356
104.112
106.033
107.874
108.559
104.157
88.0772
73.8014
73.807
73.822
73.8464
73.8806
73.9249
73.9797
74.0451
74.1214
74.2084
74.3061
74.4144
74.5333
74.6628
74.803
74.9539
75.1161
75.29
75.476
75.6748
75.8867
76.1121
76.3517
76.6061
76.8757
77.1614
77.464
77.7843
78.1237
78.4828
78.8641
79.2667
79.6929
80.1438
80.6215
81.1278
81.6648
82.2351
82.8403
83.4825
84.1648
84.8906
85.6635
86.4867
87.3645
88.3016
89.3057
90.386
91.5512
92.8089
94.1593
95.6055
97.1162
98.6362
100.06
101.408
102.696
103.316
101.847
92.8467
70.5582
70.5632
70.5774
70.6009
70.634
70.6771
70.7301
70.7934
70.8673
70.9516
71.0461
71.1506
71.2652
71.3897
71.5243
71.6689
71.8239
71.9901
72.1673
72.3559
72.5561
72.768
72.9919
73.2278
73.4761
73.7372
74.0109
74.2979
74.5981
74.9114
75.2386
75.5782
75.9303
76.2942
76.6694
77.0553
77.4504
77.8528
78.2593
78.668
79.0754
79.4774
79.8699
80.2464
80.6002
80.9212
81.1944
81.401
81.5196
81.5228
81.378
81.0439
80.4889
79.7261
78.8735
77.7169
75.9066
72.6443
65.7921
48.6338
66.9973
67.0006
67.0113
67.0298
67.0558
67.0897
67.132
67.1828
67.2419
67.3092
67.3844
67.4673
67.5577
67.6555
67.7603
67.8726
67.9925
68.1199
68.2546
68.3968
68.5462
68.7025
68.8658
69.0361
69.2127
69.3956
69.5845
69.7792
69.979
70.184
70.3927
70.6047
70.8183
71.0325
71.2459
71.4567
71.6624
71.861
72.0486
72.2215
72.3758
72.5074
72.6119
72.6835
72.7171
72.7076
72.6502
72.5394
72.3683
72.1297
71.8182
71.4297
70.9315
70.2781
69.3808
68.1224
66.2625
63.216
56.4707
39.7777
63.4598
63.4615
63.469
63.4822
63.5014
63.5267
63.5586
63.5971
63.6421
63.6932
63.75
63.8124
63.8801
63.9526
64.0297
64.1119
64.199
64.2906
64.3863
64.4861
64.5894
64.6962
64.8058
64.9177
65.0316
65.1468
65.2627
65.3788
65.4943
65.6087
65.7213
65.8295
65.9326
66.0286
66.1166
66.1935
66.2573
66.3049
66.3332
66.3384
66.3169
66.2645
66.1754
66.0436
65.8625
65.6231
65.316
64.9288
64.4488
63.8617
63.1584
62.3324
61.3579
60.2288
58.9358
57.4453
55.5894
52.7183
47.0085
33.8141
59.8591
59.8585
59.8617
59.8687
59.8798
59.8954
59.9152
59.9392
59.9673
59.9993
60.0347
60.073
60.1138
60.1569
60.2028
60.2512
60.3015
60.3535
60.4067
60.4606
60.5148
60.5689
60.6222
60.6743
60.7248
60.773
60.8182
60.8597
60.8974
60.9298
60.9569
60.9758
60.986
60.9857
60.9734
60.9467
60.9033
60.8415
60.7581
60.6508
60.5162
60.3511
60.1528
59.918
59.6435
59.3262
58.9626
58.5481
58.0774
57.5451
56.9505
56.292
55.5392
54.6687
53.6372
52.3575
50.627
47.928
42.6
29.8552
56.4176
56.4154
56.4153
56.4173
56.4216
56.4284
56.4378
56.4495
56.4635
56.4792
56.4961
56.5141
56.5327
56.5524
56.5729
56.5937
56.6146
56.6348
56.6541
56.6719
56.6879
56.7015
56.7125
56.7203
56.7245
56.7245
56.7198
56.7099
56.694
56.672
56.6426
56.6049
56.5569
56.4983
56.4272
56.3416
56.2404
56.1212
55.9819
55.8204
55.6333
55.4176
55.1701
54.886
54.5606
54.1879
53.7611
53.2701
52.7049
52.0535
51.3103
50.4714
49.5099
48.4173
47.1767
45.7434
43.9858
41.5185
37.0276
26.8017
53.0963
53.093
53.09
53.0875
53.0855
53.0842
53.084
53.0846
53.0859
53.0873
53.0883
53.0884
53.0884
53.0876
53.0857
53.0823
53.077
53.0699
53.0601
53.0472
53.031
53.0112
52.9872
52.9586
52.9254
52.8867
52.8423
52.7917
52.7343
52.6696
52.5976
52.5158
52.4239
52.3207
52.2049
52.0751
51.9299
51.768
51.587
51.3853
51.1604
50.9098
50.6313
50.3217
49.978
49.597
49.1738
48.7032
48.1792
47.5948
46.9437
46.2215
45.4031
44.4786
43.4285
42.2055
40.6768
38.4463
34.3057
24.4576
49.9979
49.9933
49.9878
49.9814
49.9743
49.9667
49.9587
49.9499
49.9409
49.9311
49.92
49.9073
49.8927
49.8758
49.8563
49.8345
49.8098
49.7822
49.7515
49.7164
49.6768
49.6327
49.5836
49.5294
49.4699
49.4052
49.3348
49.2582
49.1751
49.0849
48.9873
48.8804
48.7639
48.6371
48.4989
48.3482
48.184
48.0045
47.8081
47.5929
47.3563
47.0958
46.8083
46.4901
46.1367
45.7431
45.3014
44.8037
44.2402
43.6087
42.8808
42.0475
41.1004
40.0315
38.828
37.461
35.8515
33.7593
30.3134
22.5675
47.0974
47.092
47.0843
47.0747
47.0634
47.0507
47.0365
47.0212
47.0041
46.9851
46.9639
46.94
46.9131
46.8833
46.8503
46.8139
46.7741
46.7308
46.6828
46.63
46.5724
46.5097
46.4418
46.3686
46.29
46.206
46.1162
46.02
45.9171
45.8073
45.6895
45.5635
45.4282
45.2834
45.1278
44.961
44.782
44.5888
44.3795
44.1525
43.9057
43.6368
43.344
43.0244
42.6738
42.2877
41.8611
41.3886
40.8643
40.283
39.6196
38.8657
38.0138
37.0574
35.9872
34.7778
33.3479
31.4358
28.1571
20.4902
44.4295
44.4229
44.4135
44.4015
44.3871
44.3704
44.3518
44.331
44.3076
44.2815
44.2523
44.2198
44.1837
44.144
44.1006
44.0533
44.0023
43.9466
43.886
43.8204
43.7497
43.6737
43.5925
43.5058
43.4139
43.3169
43.2142
43.1053
42.9901
42.8681
42.7392
42.6024
42.4573
42.3033
42.1398
41.9663
41.7816
41.5844
41.3725
41.144
40.897
40.6291
40.3384
40.0207
39.6714
39.2846
38.8538
38.3713
37.8282
37.2137
36.502
35.6842
34.7519
33.6975
32.5127
31.1816
29.6536
27.7598
24.8636
18.5494
41.9765
41.9694
41.9588
41.9449
41.928
41.9084
41.8861
41.861
41.8327
41.8011
41.7658
41.7264
41.6828
41.6352
41.5833
41.5273
41.4669
41.4015
41.331
41.2554
41.1744
41.0882
40.9966
40.8996
40.7972
40.6897
40.5768
40.458
40.333
40.2015
40.0633
39.9177
39.764
39.6022
39.4313
39.2511
39.0603
38.8575
38.6411
38.4088
38.1589
37.8893
37.5979
37.2812
36.9349
36.5542
36.1337
35.6679
35.1513
34.5597
33.882
33.1072
32.2258
31.2315
30.1198
28.8798
27.4661
25.7043
22.939
16.7384
39.7436
39.7366
39.7252
39.7099
39.6913
39.6693
39.6441
39.6155
39.5833
39.547
39.5066
39.4618
39.4124
39.3586
39.3002
39.2374
39.1694
39.0963
39.0179
38.9342
38.8453
38.7512
38.6515
38.5465
38.4363
38.3211
38.2006
38.0745
37.9424
37.8042
37.6597
37.5079
37.3485
37.1813
37.0057
36.8215
36.6273
36.4215
36.2028
35.969
35.718
35.4477
35.1558
34.8381
34.4898
34.1053
33.6782
33.2011
32.6667
32.0484
31.3339
30.5107
29.5673
28.4944
27.2859
25.9369
24.4252
22.646
20.1446
14.985
37.7141
37.7071
37.695
37.6788
37.6585
37.6344
37.6068
37.5753
37.5397
37.4999
37.4553
37.4059
37.3517
37.2926
37.2287
37.1597
37.0857
37.0064
36.9217
36.8315
36.736
36.6349
36.5284
36.4167
36.2999
36.1782
36.051
35.9183
35.7796
35.6349
35.484
35.3261
35.1608
34.9877
34.8067
34.6169
34.4173
34.2062
33.9822
33.7435
33.4878
33.2132
32.9171
32.5954
32.2438
31.8572
31.4296
30.9544
30.424
29.8137
29.112
28.3059
27.3828
26.3332
25.1535
23.8433
22.3851
20.6816
18.2941
13.3611
35.8793
35.8722
35.8594
35.8421
35.8205
35.7949
35.7653
35.7316
35.6934
35.6506
35.6027
35.5497
35.4914
35.428
35.3596
35.2858
35.2068
35.1222
35.032
34.9363
34.8351
34.7284
34.6163
34.4987
34.3761
34.2484
34.1153
33.9764
33.8315
33.6807
33.5237
33.3598
33.1886
33.0097
32.8232
32.628
32.4226
32.2057
31.9756
31.7309
31.469
31.1882
30.8852
30.5557
30.1952
29.7979
29.3575
28.866
28.3126
27.6736
26.9366
26.0877
25.1126
23.9982
22.7367
21.3278
19.7716
18.0285
15.8048
11.6293
34.2243
34.2172
34.2041
34.1858
34.1632
34.1362
34.1051
34.0695
34.0291
33.9836
33.9329
33.8768
33.8152
33.7483
33.6758
33.5977
33.5142
33.4252
33.3306
33.2302
33.1241
33.0125
32.8951
32.7723
32.6441
32.5109
32.3721
32.2273
32.0765
31.9194
31.756
31.5855
31.4077
31.222
31.0285
30.8258
30.6126
30.3874
30.1488
29.895
29.6235
29.3325
29.0186
28.6776
28.3051
27.8957
27.4439
26.9442
26.3747
25.7237
24.9782
24.1235
23.1441
22.026
20.7608
19.3485
17.7936
16.0713
13.9327
10.0668
32.7364
32.7294
32.7159
32.6971
32.6736
32.6458
32.6133
32.5761
32.534
32.4865
32.4334
32.3747
32.3104
32.2404
32.1647
32.0832
31.996
31.9033
31.8048
31.7004
31.5902
31.4741
31.3523
31.2247
31.0917
30.9533
30.8092
30.6589
30.5022
30.339
30.1691
29.9917
29.8064
29.6136
29.4123
29.2012
28.9788
28.7437
28.4942
28.2288
27.945
27.6405
27.3118
26.9545
26.5636
26.1334
25.6574
25.1294
24.5268
23.8375
23.0484
22.1453
21.1129
19.9353
18.5981
17.0948
15.4355
13.6394
11.5705
8.22815
31.4029
31.396
31.3821
31.3629
31.3388
31.3102
31.277
31.2387
31.1952
31.1462
31.0915
31.0309
30.9644
30.892
30.8136
30.7292
30.639
30.543
30.4415
30.3338
30.2201
30.1005
29.9747
29.843
29.7056
29.5628
29.4139
29.2584
29.0962
28.927
28.7506
28.5663
28.3739
28.1736
27.964
27.7438
27.5115
27.2656
27.0045
26.7264
26.4288
26.1092
25.7639
25.3886
24.9778
24.5258
24.0261
23.4716
22.8404
22.1211
21.3011
20.3665
19.3034
18.0965
16.7287
15.1892
13.4865
11.6578
9.63625
6.5976
30.2117
30.2052
30.1913
30.1719
30.1473
30.1182
30.0844
30.0453
30.0009
29.9509
29.895
29.8331
29.7652
29.6914
29.6113
29.5251
29.4329
29.3348
29.231
29.121
29.0048
28.8824
28.7539
28.6193
28.4789
28.3328
28.1802
28.0208
27.8542
27.6802
27.4986
27.3085
27.1108
26.9042
26.6873
26.4589
26.2173
25.961
25.6885
25.3972
25.0849
24.7487
24.3847
23.988
23.5531
23.0735
22.5418
21.948
21.2709
20.4994
19.6215
18.6253
17.4973
16.2211
14.7786
13.1524
11.3412
9.40406
7.37434
4.67325
29.1521
29.1458
29.1319
29.1123
29.0877
29.0585
29.0244
28.9852
28.9405
28.8901
28.8339
28.7717
28.7033
28.6289
28.548
28.461
28.3679
28.2687
28.1637
28.053
27.9359
27.8123
27.6824
27.546
27.4037
27.2553
27.0998
26.9372
26.767
26.5886
26.4017
26.2059
26.0015
25.7869
25.5606
25.3208
25.0661
24.7945
24.5041
24.1924
23.8565
23.4929
23.0972
22.6644
22.1887
21.6633
21.0821
20.4249
19.6803
18.8371
17.8849
16.813
15.6083
14.2595
12.755
11.0773
9.20831
7.21054
5.19999
2.76704
28.2113
28.2052
28.1912
28.1713
28.1465
28.1169
28.0823
28.0424
27.9971
27.9458
27.8887
27.8252
27.7555
27.6796
27.5974
27.509
27.4147
27.3141
27.2077
27.0957
26.9773
26.8526
26.7213
26.5835
26.4394
26.2893
26.1318
25.9668
25.7938
25.6123
25.4217
25.223
25.0145
24.7951
24.5628
24.3162
24.0537
23.7731
23.4723
23.1488
22.7993
22.42
22.0062
21.5524
21.052
20.4966
19.8769
19.172
18.3691
17.4564
16.4243
15.259
13.9411
12.4614
10.8169
9.01853
7.09412
5.05814
2.99941
1.03384
27.3443
27.3392
27.3262
27.3077
27.2845
27.2569
27.2246
27.1875
27.1451
27.0972
27.0436
26.9842
26.9187
26.8475
26.7705
26.6876
26.599
26.5048
26.4051
26.3001
26.1892
26.0724
25.9496
25.821
25.6861
25.5458
25.3985
25.2441
25.0821
24.9118
24.7348
24.5496
24.3555
24.1506
23.9338
23.7037
23.4584
23.1962
22.9148
22.6118
22.2835
21.926
21.5343
21.1031
20.6258
20.0951
19.4917
18.8008
18.0077
17.0995
16.0711
14.9058
13.5898
12.1148
10.4743
8.6612
6.67332
4.54128
2.36133
0.568957
26.5565
26.5526
26.5407
26.5237
26.5025
26.4774
26.4484
26.415
26.3767
26.3334
26.2851
26.2315
26.1726
26.1085
26.0389
25.964
25.8839
25.7983
25.708
25.6129
25.5133
25.4085
25.2983
25.1829
25.0619
24.9361
24.8044
24.6665
24.5221
24.3705
24.2136
24.05
23.8792
23.7
23.5113
23.3123
23.1018
22.8779
22.6393
22.385
22.1117
21.8175
21.5
21.1557
20.7811
20.3723
19.9235
19.4142
18.8285
18.1429
17.3226
16.359
15.2545
13.9947
12.5633
10.941
9.10567
7.02801
4.67268
2.07455
25.8816
25.8787
25.868
25.8524
25.8329
25.81
25.7834
25.753
25.7183
25.6793
25.6356
25.5867
25.5332
25.475
25.4117
25.3438
25.2711
25.1938
25.1121
25.0263
24.9363
24.8424
24.7438
24.6405
24.5324
24.4197
24.3028
24.1803
24.0518
23.9173
23.7777
23.6325
23.4809
23.3224
23.1557
22.98
22.7939
22.595
22.382
22.1532
21.9054
21.6358
21.3406
21.0159
20.6567
20.258
19.8152
19.3134
18.7436
18.0993
17.3716
16.5409
15.5799
14.4642
13.1712
11.6754
9.94716
7.94576
5.57959
2.7228
25.293
25.2912
25.2817
25.2677
25.2501
25.2296
25.206
25.1792
25.1488
25.1144
25.0758
25.033
24.9858
24.9344
24.8787
24.8188
24.755
24.6874
24.6156
24.5403
24.4618
24.3802
24.2948
24.2054
24.1121
24.015
23.9146
23.8097
23.6997
23.586
23.4681
23.3456
23.218
23.0855
22.9465
22.8006
22.647
22.4853
22.3128
22.129
21.9326
21.7209
21.4919
21.2429
20.9702
20.6686
20.3328
19.9539
19.508
18.9796
18.3507
17.6032
16.718
15.6718
14.4371
12.9805
11.2571
9.20535
6.70324
3.52879
24.79
24.7894
24.7811
24.7685
24.7527
24.7344
24.7136
24.6901
24.6635
24.6334
24.5998
24.5626
24.5216
24.4766
24.4279
24.3756
24.32
24.2609
24.1987
24.1335
24.0656
23.9949
23.9221
23.8457
23.7659
23.683
23.5971
23.5086
23.4154
23.3195
23.2199
23.1163
23.0087
22.8972
22.7798
22.6563
22.5257
22.387
22.2393
22.08
21.9071
21.7187
21.5113
21.2822
21.0268
20.7415
20.4219
20.0629
19.6452
19.1596
18.5922
17.9237
17.1294
16.1805
15.0442
13.6822
12.0432
10.0478
7.53874
4.16329
24.3546
24.3555
24.3483
24.3372
24.3235
24.3075
24.2899
24.2698
24.2475
24.2222
24.1937
24.162
24.1269
24.0886
24.0474
24.0029
23.9555
23.9055
23.853
23.798
23.7407
23.6814
23.6204
23.5567
23.4906
23.422
23.3515
23.279
23.2029
23.1253
23.0446
22.9615
22.8757
22.7871
22.6943
22.5969
22.4943
22.3851
22.2694
22.1465
22.0135
21.8682
21.7085
21.5318
21.3347
21.1132
20.8625
20.5763
20.2326
19.8183
19.3155
18.7029
17.9546
17.0401
15.9236
14.5633
12.9033
10.8575
8.25249
4.69556
23.9837
23.9856
23.9796
23.97
23.9579
23.9442
23.9292
23.9126
23.894
23.873
23.8493
23.8227
23.7935
23.7614
23.7266
23.6896
23.6503
23.6089
23.5654
23.5197
23.4722
23.4228
23.372
23.3204
23.2669
23.2114
23.1544
23.0963
23.0353
22.9732
22.9093
22.8432
22.7748
22.7043
22.6303
22.5524
22.4696
22.3804
22.2843
22.1804
22.0681
21.9423
21.8014
21.6423
21.4613
21.2557
21.021
20.7525
20.4303
20.0436
19.5769
19.01
18.3171
17.4662
16.4183
15.1265
13.5284
11.5246
8.91624
5.21109
23.6669
23.6697
23.6647
23.656
23.6457
23.6341
23.6217
23.6082
23.5928
23.5758
23.5565
23.5349
23.5111
23.485
23.457
23.4274
23.396
23.3625
23.3274
23.291
23.2528
23.2134
23.173
23.1325
23.0911
23.0482
23.0042
22.9597
22.9135
22.8666
22.8183
22.7689
22.718
22.6655
22.6108
22.5532
22.4918
22.4256
22.3538
22.2758
22.191
22.0948
21.986
21.8617
21.7188
21.5532
21.3608
21.1365
20.8621
20.5224
20.0991
19.5698
18.9062
18.074
17.0321
15.7308
14.1058
12.056
9.37419
5.55143
23.3965
23.4008
23.3967
23.3892
23.3803
23.3709
23.3608
23.3502
23.338
23.3247
23.3094
23.2921
23.2732
23.2531
23.2314
23.2082
23.1837
23.1574
23.1299
23.1014
23.0715
23.0411
23.0102
22.9791
22.9489
22.9172
22.8847
22.8514
22.8181
22.7843
22.7496
22.7142
22.6773
22.6391
22.5998
22.5577
22.512
22.4614
22.4059
22.3437
22.2745
22.1939
22.1006
21.9912
21.8624
21.71
21.5295
21.3161
21.0582
20.7362
20.3348
19.8335
19.2052
18.4152
17.4207
16.1688
14.5902
12.5722
9.88937
5.95862
23.1658
23.1715
23.1685
23.1623
23.1549
23.1472
23.1395
23.1314
23.1224
23.1125
23.1009
23.0883
23.0744
23.0591
23.0428
23.0254
23.0068
22.9871
22.9664
22.945
22.9233
22.9007
22.8783
22.8563
22.8353
22.8141
22.7925
22.7706
22.7491
22.7279
22.7059
22.6834
22.6603
22.6362
22.6119
22.5851
22.5554
22.5218
22.4838
22.4409
22.3903
22.3302
22.2581
22.1713
22.0671
21.9407
21.7872
21.6015
21.3753
21.084
20.7121
20.2372
19.6296
18.8523
17.8598
16.5969
14.9923
12.9341
10.1922
6.17577
22.9702
22.977
22.9749
22.9698
22.9638
22.9578
22.9519
22.946
22.9395
22.9327
22.9248
22.9161
22.9065
22.896
22.8846
22.8723
22.8592
22.8454
22.831
22.8162
22.8009
22.7859
22.7712
22.7568
22.7437
22.7324
22.7208
22.7091
22.6981
22.6871
22.6757
22.6638
22.6519
22.6396
22.6269
22.6122
22.5944
22.5731
22.5476
22.5169
22.4786
22.4308
22.3702
22.2948
22.2009
22.0847
21.941
21.7646
21.5486
21.2692
20.912
20.456
19.8726
19.1245
18.1656
16.9389
15.3687
13.3341
10.5913
6.48836
22.8046
22.8126
22.8114
22.8073
22.8024
22.7975
22.7932
22.7894
22.7857
22.7817
22.7772
22.7721
22.7663
22.7601
22.753
22.7452
22.7369
22.7284
22.7197
22.7108
22.702
22.6934
22.6857
22.6785
22.673
22.6699
22.6666
22.6639
22.6616
22.6601
22.6586
22.6572
22.6558
22.6545
22.6526
22.6489
22.643
22.6339
22.6208
22.6031
22.5786
22.5448
22.499
22.4394
22.3621
22.2629
22.1372
21.9795
21.783
21.5245
21.1885
20.7527
20.1858
19.4479
18.4905
17.2542
15.662
13.5933
10.8024
6.63893
22.664
22.6731
22.6724
22.669
22.6656
22.6625
22.6599
22.658
22.6566
22.655
22.6531
22.651
22.6485
22.6456
22.6423
22.6387
22.635
22.6313
22.6275
22.6237
22.6204
22.6177
22.6161
22.6159
22.6173
22.6212
22.6256
22.6304
22.6358
22.642
22.6488
22.6562
22.6635
22.6708
22.6781
22.6837
22.6873
22.6877
22.6846
22.6761
22.6609
22.636
22.5996
22.549
22.4811
22.3908
22.2729
22.1222
21.9326
21.6823
21.3574
20.9363
20.387
19.67
18.7369
17.5273
15.9604
13.9085
11.1138
6.87665
22.5438
22.5544
22.5549
22.5526
22.5501
22.5481
22.5471
22.547
22.5473
22.548
22.5487
22.5492
22.5497
22.5499
22.55
22.5501
22.5504
22.5506
22.551
22.5521
22.554
22.557
22.5611
22.5666
22.574
22.5836
22.5956
22.6076
22.6204
22.634
22.6481
22.6632
22.6782
22.6933
22.7087
22.7227
22.7352
22.7449
22.7512
22.7527
22.7473
22.733
22.7074
22.668
22.6118
22.5334
22.4284
22.2904
22.1131
21.8771
21.5682
21.164
20.6278
19.9185
18.9863
17.7686
16.1844
14.1045
11.2705
6.98712
22.4425
22.4544
22.4559
22.4543
22.4525
22.4517
22.4521
22.4535
22.4557
22.4582
22.4612
22.4643
22.4674
22.4704
22.4735
22.4767
22.4806
22.4847
22.4895
22.4949
22.5015
22.5092
22.5184
22.5289
22.5415
22.5562
22.5738
22.5917
22.6105
22.6302
22.6503
22.6725
22.6949
22.7169
22.7385
22.7594
22.779
22.796
22.8099
22.8193
22.8211
22.8145
22.7967
22.7649
22.7155
22.6441
22.5457
22.4133
22.2382
22.0083
21.7084
21.3191
20.7954
20.1003
19.1855
17.9876
16.4215
14.3531
11.5122
7.16306
22.3561
22.3693
22.3714
22.3705
22.3694
22.3695
22.3712
22.3742
22.3781
22.3826
22.3874
22.3927
22.3981
22.4035
22.4094
22.4156
22.4227
22.4303
22.4391
22.4484
22.459
22.471
22.4845
22.4999
22.5172
22.5366
22.5587
22.5817
22.606
22.6312
22.6575
22.6857
22.7143
22.7425
22.7703
22.7979
22.8239
22.8475
22.8682
22.8841
22.8932
22.8941
22.8842
22.861
22.8197
22.7571
22.6676
22.5453
22.3808
22.1628
21.8756
21.496
20.9806
20.2916
19.3783
18.1752
16.5953
14.5044
11.6324
7.24998
22.2838
22.2979
22.3009
22.3004
22.3001
22.3012
22.3041
22.3085
22.3138
22.3198
22.3263
22.3333
22.3409
22.3484
22.3565
22.3651
22.3748
22.3858
22.3977
22.4106
22.4251
22.4409
22.4586
22.4785
22.5001
22.5238
22.5494
22.5769
22.6061
22.6361
22.6672
22.7003
22.7338
22.7673
22.8005
22.8335
22.8651
22.8944
22.9206
22.9418
22.9567
22.9635
22.9596
22.9418
22.9065
22.8496
22.7663
22.6499
22.4919
22.2816
22.0062
21.6298
21.1222
20.444
19.5438
18.3549
16.7879
14.7041
11.8245
7.39208
22.2246
22.2401
22.2436
22.2434
22.2433
22.2451
22.2488
22.254
22.2603
22.2677
22.2759
22.2848
22.2941
22.3036
22.314
22.3249
22.337
22.3504
22.365
22.3808
22.3984
22.4176
22.439
22.4628
22.4884
22.5161
22.5458
22.5774
22.6107
22.6447
22.68
22.7176
22.7557
22.7937
22.8319
22.8696
22.9063
22.9407
22.9722
22.9988
23.0192
23.0316
23.0333
23.0217
22.993
22.9432
22.8673
22.7585
22.6089
22.4076
22.1413
21.7729
21.2724
20.5995
19.7013
18.5092
16.9318
14.8292
11.9233
7.46019
22.1743
22.1913
22.1957
22.1963
22.1968
22.199
22.2033
22.2091
22.2169
22.2256
22.2352
22.2455
22.2563
22.2679
22.2801
22.2931
22.3072
22.3226
22.3395
22.3579
22.3783
22.4003
22.4247
22.4515
22.4804
22.5115
22.5446
22.5797
22.6167
22.6551
22.6946
22.7359
22.7783
22.8207
22.8631
22.905
22.9458
22.9843
23.0196
23.0507
23.0765
23.0938
23.1005
23.0937
23.0702
23.0255
22.9546
22.8514
22.7075
22.5123
22.252
21.8899
21.3966
20.7323
19.8442
18.6627
17.0943
14.9957
12.0812
7.57653
22.1313
22.1493
22.1543
22.1556
22.1568
22.1595
22.1645
22.1714
22.18
22.1899
22.2008
22.2124
22.2249
22.2379
22.2517
22.2669
22.283
22.3006
22.3197
22.3405
22.3632
22.3881
22.415
22.4449
22.4767
22.5107
22.5469
22.5851
22.6255
22.6676
22.7113
22.7559
22.8022
22.8481
22.8943
22.9401
22.9849
23.0279
23.0669
23.1022
23.1329
23.1549
23.166
23.1643
23.1455
23.106
23.0413
22.9446
22.8077
22.6199
22.3659
22.0099
21.5225
20.8631
19.9777
18.7948
17.2187
15.1043
12.1666
7.63256
22.0949
22.1139
22.1197
22.1212
22.1229
22.1266
22.1321
22.1398
22.1493
22.1602
22.1721
22.1851
22.1989
22.2134
22.229
22.246
22.2644
22.284
22.3051
22.328
22.3528
22.3797
22.4092
22.4414
22.4758
22.5123
22.5511
22.5923
22.6358
22.6813
22.7281
22.7764
22.8257
22.8753
22.9251
22.9747
23.0232
23.0695
23.1124
23.1513
23.1857
23.2113
23.2263
23.2285
23.2145
23.1795
23.1197
23.0285
22.8979
22.7188
22.4662
22.1144
21.6329
20.9809
20.1037
18.9289
17.3595
15.2472
12.3002
7.73044
22.0639
22.0843
22.0909
22.0931
22.0951
22.0991
22.1055
22.1142
22.1244
22.1361
22.1493
22.1633
22.1785
22.1944
22.2115
22.23
22.25
22.2715
22.2944
22.3192
22.3459
22.3749
22.4065
22.441
22.4777
22.5166
22.5576
22.6013
22.6473
22.6963
22.7463
22.7977
22.8504
22.9035
22.9567