/*--------------------------------*- C++ -*----------------------------------*\
| =========                 |                                                 |
| \\      /  F ield         | OpenFOAM: The Open Source CFD Toolbox           |
|  \\    /   O peration     | Version:  v1906                                 |
|   \\  /    A nd           | Web:      www.OpenFOAM.com                      |
|    \\/     M anipulation  |                                                 |
\*---------------------------------------------------------------------------*/
FoamFile
{
    version     2.0;
    format      ascii;
    class       surfaceScalarField;
    location    "2.83";
    object      phi;
}
// * * * * * * * * * * * * * * * * * * * * * * * * * * * * * * * * * * * * * //

dimensions      [1 0 -1 0 0 0 0];
oriented        oriented;


internalField   nonuniform List<scalar> 
52300
(
-2.62602e-08
-0.000260221
-5.20759e-08
-0.000260204
-7.75704e-08
-0.000260184
-1.02685e-07
-0.000260161
-1.28172e-07
-0.000260137
-1.53499e-07
-0.000260113
-1.79541e-07
-0.000260087
-2.05805e-07
-0.000260059
-2.31732e-07
-0.000260028
-2.57916e-07
-0.000259995
-2.84678e-07
-0.000259957
-3.11581e-07
-0.000259913
-3.37278e-07
-0.000259864
-3.62997e-07
-0.000259809
-3.8961e-07
-0.000259748
-4.16662e-07
-0.00025968
-4.43061e-07
-0.000259606
-4.68798e-07
-0.000259526
-4.95118e-07
-0.000259439
-5.19271e-07
-0.000259345
-5.42443e-07
-0.000259243
-5.65685e-07
-0.000259135
-5.88652e-07
-0.00025902
-6.11767e-07
-0.000258898
-6.34138e-07
-0.000258768
-6.55765e-07
-0.000258631
-6.76828e-07
-0.000258486
-6.96674e-07
-0.000258334
-7.15348e-07
-0.000258174
-7.32755e-07
-0.000258007
-7.48535e-07
-0.000257832
-7.63784e-07
-0.000257647
-7.78534e-07
-0.000257449
-7.91842e-07
-0.000257239
-8.04041e-07
-0.000257015
-8.15317e-07
-0.000256777
-8.25525e-07
-0.00025652
-8.33663e-07
-0.000256244
-8.39201e-07
-0.000255944
-8.41929e-07
-0.000255617
-8.42211e-07
-0.000255257
-8.40208e-07
-0.000254859
-8.33085e-07
-0.000254414
-8.20331e-07
-0.000253914
-8.00552e-07
-0.000253346
-7.71799e-07
-0.000252698
-7.31105e-07
-0.000251948
-6.74001e-07
-0.000251073
-5.95757e-07
-0.000250036
-4.8597e-07
-0.000248791
-3.34408e-07
-0.000247273
-1.49144e-07
-0.000245366
7.54301e-08
-0.000242899
3.36856e-07
-0.000239663
6.15923e-07
-0.000235382
8.67928e-07
-0.000229755
1.0061e-06
-0.000221741
9.36124e-07
-0.00021031
5.99851e-07
-0.000193163
-0.000160852
-6.11877e-08
-0.000260154
-1.22134e-07
-0.000260138
-1.82509e-07
-0.000260119
-2.407e-07
-0.000260097
-2.98136e-07
-0.000260074
-3.55044e-07
-0.00026005
-4.10527e-07
-0.000260025
-4.65741e-07
-0.000259997
-5.20608e-07
-0.000259967
-5.74727e-07
-0.000259933
-6.28606e-07
-0.000259896
-6.82627e-07
-0.000259853
-7.37055e-07
-0.000259805
-7.90619e-07
-0.000259751
-8.43127e-07
-0.000259691
-8.93722e-07
-0.000259624
-9.43179e-07
-0.00025955
-9.91539e-07
-0.00025947
-1.03846e-06
-0.000259384
-1.08657e-06
-0.000259291
-1.13396e-06
-0.000259191
-1.17881e-06
-0.000259085
-1.22216e-06
-0.000258971
-1.26281e-06
-0.000258851
-1.301e-06
-0.000258723
-1.33739e-06
-0.000258588
-1.37138e-06
-0.000258446
-1.40377e-06
-0.000258296
-1.43412e-06
-0.000258139
-1.46206e-06
-0.000257974
-1.48777e-06
-0.000257801
-1.51041e-06
-0.000257618
-1.52937e-06
-0.000257424
-1.54518e-06
-0.000257217
-1.55815e-06
-0.000256997
-1.56681e-06
-0.000256763
-1.57122e-06
-0.000256512
-1.57226e-06
-0.00025624
-1.56828e-06
-0.000255947
-1.55811e-06
-0.000255626
-1.54184e-06
-0.000255272
-1.51632e-06
-0.000254881
-1.48268e-06
-0.000254445
-1.43948e-06
-0.000253956
-1.38329e-06
-0.000253401
-1.31142e-06
-0.000252767
-1.21979e-06
-0.000252037
-1.10232e-06
-0.000251187
-9.50017e-07
-0.000250183
-7.56445e-07
-0.00024898
-5.09222e-07
-0.000247516
-2.14631e-07
-0.000245655
1.34916e-07
-0.000243243
5.35627e-07
-0.000240059
9.58877e-07
-0.000235801
1.3388e-06
-0.000230131
1.54469e-06
-0.000221945
1.4322e-06
-0.000210197
9.19541e-07
-0.000192652
-0.000159935
-7.85593e-08
-0.000260069
-1.56227e-07
-0.000260053
-2.3298e-07
-0.000260034
-3.10296e-07
-0.000260014
-3.87033e-07
-0.000259992
-4.63372e-07
-0.000259968
-5.39455e-07
-0.000259944
-6.14665e-07
-0.000259917
-6.89777e-07
-0.000259887
-7.64345e-07
-0.000259854
-8.38241e-07
-0.000259817
-9.11452e-07
-0.000259775
-9.84138e-07
-0.000259728
-1.05554e-06
-0.000259676
-1.1247e-06
-0.000259617
-1.1935e-06
-0.000259551
-1.26088e-06
-0.00025948
-1.32533e-06
-0.000259402
-1.38799e-06
-0.000259317
-1.44715e-06
-0.000259226
-1.50338e-06
-0.000259128
-1.55797e-06
-0.000259024
-1.61057e-06
-0.000258913
-1.6616e-06
-0.000258796
-1.71008e-06
-0.000258671
-1.75597e-06
-0.000258539
-1.79928e-06
-0.0002584
-1.83777e-06
-0.000258254
-1.87155e-06
-0.0002581
-1.90205e-06
-0.000257939
-1.9277e-06
-0.00025777
-1.95062e-06
-0.000257591
-1.96879e-06
-0.000257402
-1.98183e-06
-0.0002572
-1.98931e-06
-0.000256985
-1.99219e-06
-0.000256757
-1.98974e-06
-0.000256511
-1.98084e-06
-0.000256246
-1.96409e-06
-0.000255959
-1.94008e-06
-0.000255646
-1.90681e-06
-0.000255302
-1.86586e-06
-0.000254921
-1.81328e-06
-0.000254497
-1.7469e-06
-0.00025402
-1.66626e-06
-0.00025348
-1.56774e-06
-0.000252864
-1.4474e-06
-0.000252155
-1.30169e-06
-0.000251329
-1.12594e-06
-0.000250355
-9.14125e-07
-0.000249188
-6.6141e-07
-0.000247764
-3.59618e-07
-0.000245952
8.98149e-10
-0.000243598
4.21559e-07
-0.000240474
8.79197e-07
-0.000236253
1.30181e-06
-0.00023055
1.55737e-06
-0.000222199
1.48091e-06
-0.000210121
9.52827e-07
-0.000192125
-0.000158986
-1.04229e-07
-0.000259959
-2.07799e-07
-0.000259945
-3.10517e-07
-0.000259927
-4.12503e-07
-0.000259907
-5.14213e-07
-0.000259885
-6.15952e-07
-0.000259862
-7.17687e-07
-0.000259837
-8.19869e-07
-0.000259811
-9.21933e-07
-0.000259781
-1.02305e-06
-0.000259749
-1.12306e-06
-0.000259713
-1.22107e-06
-0.000259672
-1.31676e-06
-0.000259626
-1.41104e-06
-0.000259575
-1.50339e-06
-0.000259518
-1.59283e-06
-0.000259455
-1.6799e-06
-0.000259386
-1.76518e-06
-0.000259311
-1.84695e-06
-0.000259229
-1.92616e-06
-0.000259141
-2.00269e-06
-0.000259048
-2.07554e-06
-0.000258947
-2.14427e-06
-0.00025884
-2.20876e-06
-0.000258727
-2.27005e-06
-0.000258606
-2.32556e-06
-0.000258479
-2.37582e-06
-0.000258344
-2.42286e-06
-0.000258202
-2.46574e-06
-0.000258054
-2.5035e-06
-0.000257898
-2.53572e-06
-0.000257734
-2.56167e-06
-0.000257562
-2.58181e-06
-0.000257378
-2.59594e-06
-0.000257183
-2.60347e-06
-0.000256974
-2.60374e-06
-0.000256752
-2.59576e-06
-0.000256513
-2.57886e-06
-0.000256256
-2.55332e-06
-0.000255978
-2.51859e-06
-0.000255675
-2.47442e-06
-0.000255342
-2.41815e-06
-0.000254973
-2.35055e-06
-0.000254562
-2.26945e-06
-0.0002541
-2.1715e-06
-0.000253576
-2.05481e-06
-0.000252979
-1.91675e-06
-0.000252293
-1.75066e-06
-0.000251494
-1.54819e-06
-0.000250554
-1.30085e-06
-0.000249431
-1.01108e-06
-0.000248049
-6.63829e-07
-0.000246294
-2.42364e-07
-0.000244014
2.65985e-07
-0.000240976
8.50245e-07
-0.000236831
1.39939e-06
-0.000231094
1.75837e-06
-0.000222554
1.72824e-06
-0.000210089
1.14747e-06
-0.000191545
-0.000157843
-1.34986e-07
-0.000259822
-2.68735e-07
-0.000259807
-4.01659e-07
-0.000259789
-5.34012e-07
-0.00025977
-6.65858e-07
-0.000259749
-7.97559e-07
-0.000259726
-9.28626e-07
-0.000259702
-1.05897e-06
-0.000259676
-1.18748e-06
-0.000259648
-1.31486e-06
-0.000259616
-1.44011e-06
-0.000259582
-1.56369e-06
-0.000259542
-1.68535e-06
-0.000259498
-1.8047e-06
-0.00025945
-1.92207e-06
-0.000259396
-2.03615e-06
-0.000259336
-2.14696e-06
-0.00025927
-2.25426e-06
-0.000259199
-2.35768e-06
-0.000259122
-2.45608e-06
-0.000259039
-2.54945e-06
-0.00025895
-2.63761e-06
-0.000258855
-2.72096e-06
-0.000258753
-2.79933e-06
-0.000258645
-2.87161e-06
-0.00025853
-2.9387e-06
-0.000258408
-2.99989e-06
-0.00025828
-3.05483e-06
-0.000258145
-3.10326e-06
-0.000258003
-3.14473e-06
-0.000257854
-3.17878e-06
-0.000257698
-3.20502e-06
-0.000257533
-3.22283e-06
-0.000257357
-3.23233e-06
-0.000257169
-3.23289e-06
-0.00025697
-3.22362e-06
-0.000256757
-3.2051e-06
-0.000256527
-3.17675e-06
-0.000256279
-3.13815e-06
-0.000256013
-3.08831e-06
-0.00025572
-3.02648e-06
-0.000255399
-2.95159e-06
-0.000255043
-2.86404e-06
-0.000254645
-2.76059e-06
-0.000254198
-2.6409e-06
-0.000253691
-2.5005e-06
-0.000253114
-2.3361e-06
-0.00025245
-2.14423e-06
-0.000251679
-1.9202e-06
-0.000250773
-1.65481e-06
-0.000249691
-1.34831e-06
-0.00024835
-9.83889e-07
-0.000246653
-5.39899e-07
-0.000244452
1.19239e-08
-0.000241521
7.10686e-07
-0.000237523
1.34405e-06
-0.000231721
1.7939e-06
-0.000222999
1.83952e-06
-0.000210132
1.25891e-06
-0.000190963
-0.000156587
-1.7148e-07
-0.000259646
-3.42571e-07
-0.000259633
-5.12666e-07
-0.000259615
-6.82565e-07
-0.000259596
-8.53208e-07
-0.000259575
-1.02209e-06
-0.000259554
-1.18933e-06
-0.00025953
-1.35455e-06
-0.000259506
-1.51864e-06
-0.000259478
-1.6814e-06
-0.000259449
-1.84325e-06
-0.000259417
-2.00166e-06
-0.00025938
-2.15634e-06
-0.000259339
-2.30768e-06
-0.000259294
-2.45562e-06
-0.000259243
-2.5997e-06
-0.000259187
-2.73841e-06
-0.000259126
-2.87197e-06
-0.000259059
-2.99989e-06
-0.000258988
-3.12318e-06
-0.000258911
-3.24063e-06
-0.000258828
-3.35226e-06
-0.000258739
-3.45648e-06
-0.000258644
-3.55265e-06
-0.000258542
-3.64046e-06
-0.000258435
-3.72055e-06
-0.000258321
-3.79264e-06
-0.000258201
-3.85661e-06
-0.000258074
-3.91186e-06
-0.000257941
-3.95859e-06
-0.000257802
-3.99563e-06
-0.000257656
-4.02268e-06
-0.000257501
-4.0398e-06
-0.000257336
-4.04527e-06
-0.000257159
-4.03899e-06
-0.000256971
-4.02127e-06
-0.00025677
-3.99222e-06
-0.000256551
-3.95142e-06
-0.000256317
-3.89654e-06
-0.000256063
-3.82795e-06
-0.000255784
-3.74477e-06
-0.000255476
-3.64759e-06
-0.000255134
-3.53321e-06
-0.000254752
-3.4028e-06
-0.000254322
-3.25351e-06
-0.000253835
-3.08351e-06
-0.000253279
-2.88779e-06
-0.00025264
-2.66189e-06
-0.000251899
-2.39873e-06
-0.000251031
-2.10108e-06
-0.000249983
-1.7571e-06
-0.000248688
-1.3509e-06
-0.000247053
-8.61337e-07
-0.000244935
-2.6037e-07
-0.000242114
4.94532e-07
-0.000238269
1.23085e-06
-0.000232449
1.82386e-06
-0.000223584
1.98317e-06
-0.000210286
1.39446e-06
-0.000190371
-0.000155195
-2.18663e-07
-0.000259422
-4.37434e-07
-0.000259409
-6.54701e-07
-0.000259392
-8.70693e-07
-0.000259373
-1.08465e-06
-0.000259353
-1.29834e-06
-0.000259332
-1.51177e-06
-0.00025931
-1.72476e-06
-0.000259287
-1.93595e-06
-0.000259262
-2.1447e-06
-0.000259235
-2.34921e-06
-0.000259206
-2.55039e-06
-0.000259174
-2.74769e-06
-0.000259137
-2.93993e-06
-0.000259097
-3.12641e-06
-0.000259051
-3.30751e-06
-0.000259001
-3.48341e-06
-0.000258946
-3.65252e-06
-0.000258885
-3.81444e-06
-0.00025882
-3.96813e-06
-0.000258751
-4.11318e-06
-0.000258676
-4.24986e-06
-0.000258595
-4.37801e-06
-0.000258509
-4.49683e-06
-0.000258418
-4.60662e-06
-0.000258321
-4.70563e-06
-0.000258218
-4.79353e-06
-0.000258109
-4.86985e-06
-0.000257993
-4.93473e-06
-0.000257871
-4.98775e-06
-0.000257743
-5.02872e-06
-0.00025761
-5.05618e-06
-0.000257469
-5.06961e-06
-0.000257317
-5.06983e-06
-0.000257155
-5.05644e-06
-0.000256981
-5.02919e-06
-0.000256794
-4.98412e-06
-0.000256592
-4.92109e-06
-0.000256373
-4.84371e-06
-0.000256134
-4.75035e-06
-0.000255872
-4.64043e-06
-0.00025558
-4.51283e-06
-0.000255255
-4.36701e-06
-0.000254891
-4.20209e-06
-0.00025448
-4.01691e-06
-0.000254014
-3.80697e-06
-0.000253481
-3.57112e-06
-0.000252869
-3.30574e-06
-0.000252158
-3.00549e-06
-0.000251326
-2.66857e-06
-0.000250314
-2.28455e-06
-0.000249066
-1.83877e-06
-0.000247492
-1.31211e-06
-0.000245454
-6.83185e-07
-0.000242735
6.00553e-08
-0.000239003
8.84482e-07
-0.000233263
1.63987e-06
-0.00022433
1.97569e-06
-0.000210613
1.46459e-06
-0.000189855
-0.000153732
-2.80646e-07
-0.000259135
-5.59901e-07
-0.000259123
-8.39168e-07
-0.000259108
-1.11802e-06
-0.00025909
-1.39582e-06
-0.00025907
-1.67252e-06
-0.00025905
-1.94724e-06
-0.00025903
-2.21905e-06
-0.00025901
-2.48766e-06
-0.000258988
-2.75278e-06
-0.000258965
-3.01394e-06
-0.00025894
-3.27056e-06
-0.000258913
-3.52158e-06
-0.000258882
-3.76584e-06
-0.000258849
-4.00387e-06
-0.00025881
-4.23384e-06
-0.000258767
-4.45516e-06
-0.00025872
-4.66781e-06
-0.000258668
-4.87121e-06
-0.000258612
-5.06455e-06
-0.000258552
-5.24743e-06
-0.000258487
-5.41905e-06
-0.000258418
-5.57942e-06
-0.000258344
-5.72813e-06
-0.000258265
-5.86315e-06
-0.00025818
-5.9854e-06
-0.000258091
-6.09436e-06
-0.000257996
-6.18856e-06
-0.000257895
-6.26709e-06
-0.000257788
-6.32932e-06
-0.000257676
-6.37524e-06
-0.000257559
-6.40551e-06
-0.000257433
-6.41832e-06
-0.000257299
-6.4141e-06
-0.000257154
-6.3916e-06
-0.000256997
-6.34958e-06
-0.000256828
-6.28982e-06
-0.000256646
-6.2105e-06
-0.000256447
-6.11236e-06
-0.000256228
-5.99413e-06
-0.000255986
-5.85548e-06
-0.000255714
-5.69524e-06
-0.00025541
-5.51266e-06
-0.000255068
-5.30607e-06
-0.000254679
-5.07453e-06
-0.000254236
-4.81851e-06
-0.000253729
-4.53474e-06
-0.000253145
-4.21982e-06
-0.000252465
-3.86936e-06
-0.000251667
-3.47987e-06
-0.000250695
-3.03996e-06
-0.000249497
-2.53389e-06
-0.000247989
-1.94031e-06
-0.000246038
-1.23443e-06
-0.000243431
-3.99027e-07
-0.000239828
5.53156e-07
-0.000234203
1.49409e-06
-0.000225259
2.04401e-06
-0.000211152
1.65375e-06
-0.000189456
-0.000152076
-3.64023e-07
-0.000258761
-7.27388e-07
-0.00025875
-1.08992e-06
-0.000258736
-1.45027e-06
-0.000258721
-1.80778e-06
-0.000258705
-2.16178e-06
-0.000258688
-2.51261e-06
-0.000258671
-2.86021e-06
-0.000258654
-3.20456e-06
-0.000258636
-3.54368e-06
-0.000258619
-3.87748e-06
-0.0002586
-4.20527e-06
-0.000258579
-4.52632e-06
-0.000258556
-4.84046e-06
-0.000258531
-5.14618e-06
-0.000258501
-5.44138e-06
-0.000258468
-5.72518e-06
-0.000258432
-5.99743e-06
-0.000258391
-6.25651e-06
-0.000258347
-6.50242e-06
-0.0002583
-6.73517e-06
-0.000258249
-6.95372e-06
-0.000258194
-7.15653e-06
-0.000258135
-7.34321e-06
-0.000258072
-7.51347e-06
-0.000258004
-7.66707e-06
-0.000257931
-7.80252e-06
-0.000257854
-7.91827e-06
-0.000257772
-8.01497e-06
-0.000257685
-8.09224e-06
-0.000257593
-8.14943e-06
-0.000257495
-8.18505e-06
-0.00025739
-8.19959e-06
-0.000257276
-8.19101e-06
-0.000257154
-8.15949e-06
-0.00025702
-8.10431e-06
-0.000256875
-8.02496e-06
-0.000256715
-7.92208e-06
-0.00025654
-7.79454e-06
-0.000256346
-7.6426e-06
-0.000256128
-7.465e-06
-0.000255882
-7.26134e-06
-0.000255604
-7.03262e-06
-0.000255288
-6.7772e-06
-0.000254926
-6.493e-06
-0.000254513
-6.17993e-06
-0.000254035
-5.83485e-06
-0.000253482
-5.45455e-06
-0.000252838
-5.04185e-06
-0.000252071
-4.58849e-06
-0.00025114
-4.08334e-06
-0.000249993
-3.50981e-06
-0.000248553
-2.84362e-06
-0.000246695
-2.0545e-06
-0.00024421
-1.13205e-06
-0.000240739
-6.226e-08
-0.000235261
1.06273e-06
-0.00022637
1.85122e-06
-0.000211928
1.62043e-06
-0.000189214
-0.00015045
-4.72722e-07
-0.000258281
-9.44245e-07
-0.000258271
-1.41342e-06
-0.000258259
-1.87927e-06
-0.000258247
-2.34173e-06
-0.000258235
-2.80055e-06
-0.000258223
-3.25527e-06
-0.000258211
-3.70539e-06
-0.0002582
-4.14912e-06
-0.000258187
-4.58687e-06
-0.000258175
-5.01789e-06
-0.000258163
-5.43934e-06
-0.00025815
-5.85045e-06
-0.000258137
-6.25012e-06
-0.000258121
-6.63706e-06
-0.000258103
-7.01251e-06
-0.000258083
-7.37497e-06
-0.00025806
-7.72265e-06
-0.000258036
-8.05592e-06
-0.000258008
-8.37252e-06
-0.000257977
-8.67102e-06
-0.000257944
-8.9507e-06
-0.000257907
-9.21115e-06
-0.000257868
-9.45126e-06
-0.000257825
-9.67053e-06
-0.000257778
-9.86727e-06
-0.000257728
-1.00417e-05
-0.000257673
-1.01929e-05
-0.000257615
-1.03197e-05
-0.000257553
-1.04208e-05
-0.000257486
-1.04952e-05
-0.000257414
-1.05427e-05
-0.000257335
-1.05623e-05
-0.000257249
-1.05539e-05
-0.000257154
-1.05167e-05
-0.000257049
-1.04495e-05
-0.000256934
-1.03524e-05
-0.000256805
-1.02233e-05
-0.00025666
-1.00623e-05
-0.000256496
-9.86987e-06
-0.000256309
-9.64665e-06
-0.000256094
-9.39257e-06
-0.000255848
-9.10722e-06
-0.000255563
-8.79009e-06
-0.000255234
-8.44098e-06
-0.000254853
-8.05928e-06
-0.00025441
-7.64167e-06
-0.000253893
-7.18449e-06
-0.000253287
-6.69035e-06
-0.000252555
-6.1522e-06
-0.000251667
-5.55976e-06
-0.000250575
-4.89545e-06
-0.000249206
-4.1286e-06
-0.00024745
-3.20408e-06
-0.000245122
-2.17065e-06
-0.000241759
-9.63237e-07
-0.000236454
3.83287e-07
-0.000227703
1.4889e-06
-0.000213018
1.48648e-06
-0.000189198
-0.000148955
-6.13136e-07
-0.000257664
-1.22464e-06
-0.000257655
-1.83248e-06
-0.000257646
-2.43675e-06
-0.000257637
-3.03675e-06
-0.000257629
-3.63142e-06
-0.000257622
-4.21949e-06
-0.000257616
-4.79875e-06
-0.000257611
-5.36975e-06
-0.000257608
-5.93198e-06
-0.000257604
-6.48435e-06
-0.000257602
-7.0274e-06
-0.000257599
-7.55886e-06
-0.000257598
-8.07629e-06
-0.000257596
-8.57876e-06
-0.000257592
-9.06488e-06
-0.000257588
-9.53381e-06
-0.000257583
-9.98436e-06
-0.000257577
-1.04151e-05
-0.000257569
-1.08255e-05
-0.00025756
-1.12139e-05
-0.000257549
-1.15781e-05
-0.000257536
-1.19175e-05
-0.000257521
-1.22309e-05
-0.000257504
-1.25173e-05
-0.000257484
-1.27762e-05
-0.000257462
-1.30049e-05
-0.000257437
-1.32027e-05
-0.000257409
-1.33696e-05
-0.000257378
-1.35047e-05
-0.000257343
-1.36065e-05
-0.000257304
-1.36737e-05
-0.000257259
-1.37061e-05
-0.000257207
-1.37023e-05
-0.000257148
-1.36613e-05
-0.00025708
-1.35843e-05
-0.000257001
-1.34672e-05
-0.000256912
-1.33108e-05
-0.000256807
-1.31157e-05
-0.000256684
-1.28812e-05
-0.000256537
-1.26054e-05
-0.000256362
-1.22896e-05
-0.000256154
-1.19341e-05
-0.000255909
-1.1539e-05
-0.000255618
-1.11048e-05
-0.000255276
-1.06303e-05
-0.000254872
-1.01171e-05
-0.000254394
-9.56559e-06
-0.000253828
-8.96996e-06
-0.00025314
-8.32755e-06
-0.000252298
-7.63087e-06
-0.00025126
-6.86642e-06
-0.000249959
-6.00888e-06
-0.000248295
-5.00827e-06
-0.00024611
-3.89004e-06
-0.000242864
-2.56178e-06
-0.000237769
-9.93244e-07
-0.000229256
5.05802e-07
-0.000214502
9.84398e-07
-0.000189662
-0.000147959
-7.89311e-07
-0.00025687
-1.57571e-06
-0.000256863
-2.35954e-06
-0.000256857
-3.13891e-06
-0.000256852
-3.91275e-06
-0.000256849
-4.67934e-06
-0.000256848
-5.43812e-06
-0.000256849
-6.18832e-06
-0.000256853
-6.92869e-06
-0.00025686
-7.65799e-06
-0.000256869
-8.3738e-06
-0.000256879
-9.07541e-06
-0.00025689
-9.76188e-06
-0.000256903
-1.04329e-05
-0.000256918
-1.10847e-05
-0.000256933
-1.17163e-05
-0.000256949
-1.23262e-05
-0.000256966
-1.2913e-05
-0.000256983
-1.34747e-05
-0.000257
-1.401e-05
-0.000257016
-1.4518e-05
-0.000257033
-1.49978e-05
-0.000257049
-1.54473e-05
-0.000257065
-1.5863e-05
-0.00025708
-1.62445e-05
-0.000257094
-1.65901e-05
-0.000257107
-1.69001e-05
-0.00025712
-1.71728e-05
-0.00025713
-1.7405e-05
-0.000257138
-1.75956e-05
-0.000257144
-1.77434e-05
-0.000257148
-1.78472e-05
-0.000257148
-1.79064e-05
-0.000257141
-1.79195e-05
-0.000257128
-1.78856e-05
-0.000257107
-1.78041e-05
-0.000257075
-1.76712e-05
-0.000257037
-1.74871e-05
-0.000256984
-1.72508e-05
-0.000256911
-1.69627e-05
-0.000256815
-1.66244e-05
-0.000256691
-1.6235e-05
-0.000256534
-1.57946e-05
-0.000256339
-1.53044e-05
-0.000256098
-1.47645e-05
-0.000255805
-1.4175e-05
-0.000255449
-1.35376e-05
-0.00025502
-1.28496e-05
-0.000254502
-1.21129e-05
-0.000253864
-1.13239e-05
-0.000253076
-1.04777e-05
-0.000252098
-9.55975e-06
-0.000250866
-8.55538e-06
-0.000249288
-7.44736e-06
-0.000247205
-6.18234e-06
-0.000244115
-4.66718e-06
-0.000239269
-2.81366e-06
-0.000231094
-8.08539e-07
-0.000216491
3.55071e-07
-0.00019081
-0.000147592
-1.01252e-06
-0.00025585
-2.02446e-06
-0.000255845
-3.03394e-06
-0.000255843
-4.03806e-06
-0.000255843
-5.03527e-06
-0.000255846
-6.02437e-06
-0.000255853
-7.00443e-06
-0.000255864
-7.97285e-06
-0.000255878
-8.92819e-06
-0.000255898
-9.86867e-06
-0.00025592
-1.07948e-05
-0.000255946
-1.1703e-05
-0.000255974
-1.25921e-05
-0.000256006
-1.34599e-05
-0.000256041
-1.43067e-05
-0.000256078
-1.51295e-05
-0.000256118
-1.59264e-05
-0.000256161
-1.66956e-05
-0.000256206
-1.74356e-05
-0.000256253
-1.81423e-05
-0.000256302
-1.88143e-05
-0.000256352
-1.94495e-05
-0.000256404
-2.0046e-05
-0.000256457
-2.06038e-05
-0.000256512
-2.11202e-05
-0.000256568
-2.1593e-05
-0.000256625
-2.20194e-05
-0.000256683
-2.23972e-05
-0.000256741
-2.27261e-05
-0.000256799
-2.3004e-05
-0.000256857
-2.3228e-05
-0.000256915
-2.3397e-05
-0.00025697
-2.35087e-05
-0.000257021
-2.35616e-05
-0.000257067
-2.35536e-05
-0.000257107
-2.34816e-05
-0.00025714
-2.33446e-05
-0.000257167
-2.31419e-05
-0.000257179
-2.28728e-05
-0.000257174
-2.25359e-05
-0.000257145
-2.21306e-05
-0.000257089
-2.16565e-05
-0.000257001
-2.1113e-05
-0.000256874
-2.05024e-05
-0.000256701
-1.98231e-05
-0.000256475
-1.90766e-05
-0.000256185
-1.82627e-05
-0.000255822
-1.73828e-05
-0.000255371
-1.64358e-05
-0.0002548
-1.54187e-05
-0.000254082
-1.43242e-05
-0.000253178
-1.31437e-05
-0.000252034
-1.18504e-05
-0.000250569
-1.04738e-05
-0.000248569
-8.95187e-06
-0.000245624
-7.1878e-06
-0.000241019
-5.06767e-06
-0.000233198
-2.64404e-06
-0.000218898
-7.91524e-07
-0.000192647
-0.000148374
-1.2956e-06
-0.000254548
-2.58943e-06
-0.000254543
-3.87842e-06
-0.000254544
-5.16201e-06
-0.000254551
-6.43811e-06
-0.000254562
-7.70569e-06
-0.000254579
-8.96154e-06
-0.000254601
-1.02051e-05
-0.000254628
-1.14341e-05
-0.000254662
-1.26463e-05
-0.000254702
-1.38392e-05
-0.000254746
-1.50123e-05
-0.000254795
-1.6165e-05
-0.000254849
-1.72927e-05
-0.000254908
-1.83935e-05
-0.000254971
-1.94655e-05
-0.000255039
-2.05063e-05
-0.000255112
-2.15135e-05
-0.00025519
-2.24845e-05
-0.000255273
-2.34189e-05
-0.000255359
-2.43126e-05
-0.00025545
-2.51638e-05
-0.000255545
-2.597e-05
-0.000255644
-2.67277e-05
-0.000255747
-2.7434e-05
-0.000255854
-2.80866e-05
-0.000255964
-2.8683e-05
-0.000256078
-2.92205e-05
-0.000256194
-2.96958e-05
-0.000256314
-3.0107e-05
-0.000256436
-3.04515e-05
-0.000256561
-3.07268e-05
-0.000256686
-3.09295e-05
-0.000256809
-3.10583e-05
-0.00025693
-3.11105e-05
-0.000257048
-3.10814e-05
-0.000257163
-3.09687e-05
-0.000257274
-3.07695e-05
-0.000257372
-3.04828e-05
-0.000257453
-3.01057e-05
-0.000257514
-2.9637e-05
-0.00025755
-2.90757e-05
-0.000257555
-2.8421e-05
-0.000257522
-2.76702e-05
-0.000257444
-2.68243e-05
-0.000257312
-2.58818e-05
-0.000257119
-2.48428e-05
-0.000256851
-2.37068e-05
-0.000256497
-2.24729e-05
-0.000256024
-2.1139e-05
-0.000255405
-1.97003e-05
-0.000254606
-1.81467e-05
-0.000253577
-1.6456e-05
-0.000252248
-1.46524e-05
-0.000250361
-1.26822e-05
-0.000247582
-1.04649e-05
-0.000243222
-7.90618e-06
-0.000235742
-4.99499e-06
-0.000221793
-2.18677e-06
-0.00019544
-0.000150555
-1.6441e-06
-0.000252893
-3.28406e-06
-0.000252893
-4.91991e-06
-0.000252898
-6.54982e-06
-0.000252911
-8.1718e-06
-0.000252931
-9.78386e-06
-0.000252958
-1.13847e-05
-0.000252993
-1.29705e-05
-0.000253035
-1.45402e-05
-0.000253085
-1.60915e-05
-0.000253143
-1.76226e-05
-0.000253208
-1.91315e-05
-0.00025328
-2.06137e-05
-0.000253359
-2.20703e-05
-0.000253444
-2.34976e-05
-0.000253537
-2.48932e-05
-0.000253637
-2.62538e-05
-0.000253745
-2.75773e-05
-0.00025386
-2.88607e-05
-0.000253982
-3.01007e-05
-0.000254112
-3.12961e-05
-0.000254249
-3.24423e-05
-0.000254393
-3.35359e-05
-0.000254544
-3.45739e-05
-0.000254702
-3.55534e-05
-0.000254868
-3.64705e-05
-0.00025504
-3.73222e-05
-0.00025522
-3.81052e-05
-0.000255406
-3.88147e-05
-0.000255598
-3.94477e-05
-0.000255797
-3.99999e-05
-0.000256002
-4.04674e-05
-0.00025621
-4.08472e-05
-0.000256421
-4.11353e-05
-0.000256634
-4.13262e-05
-0.000256847
-4.14176e-05
-0.000257062
-4.14041e-05
-0.000257277
-4.1284e-05
-0.000257483
-4.10529e-05
-0.000257675
-4.07077e-05
-0.000257851
-4.0246e-05
-0.000258004
-3.96649e-05
-0.00025813
-3.89622e-05
-0.00025822
-3.8132e-05
-0.000258266
-3.71747e-05
-0.000258261
-3.60902e-05
-0.000258194
-3.48791e-05
-0.000258054
-3.35425e-05
-0.000257825
-3.20811e-05
-0.000257476
-3.04961e-05
-0.000256981
-2.87877e-05
-0.000256305
-2.69539e-05
-0.000255401
-2.49885e-05
-0.000254204
-2.28671e-05
-0.000252472
-2.05358e-05
-0.000249902
-1.78847e-05
-0.000245862
-1.47123e-05
-0.000238902
-1.07175e-05
-0.000225774
-5.72458e-06
-0.00020042
-0.000156275
-2.06362e-06
-0.000250821
-4.12789e-06
-0.00025082
-6.18663e-06
-0.00025083
-8.23825e-06
-0.000250849
-1.02815e-05
-0.000250877
-1.23141e-05
-0.000250915
-1.43341e-05
-0.000250962
-1.63403e-05
-0.000251019
-1.83297e-05
-0.000251086
-2.02999e-05
-0.000251163
-2.22482e-05
-0.00025125
-2.41723e-05
-0.000251346
-2.60714e-05
-0.000251451
-2.79423e-05
-0.000251566
-2.9783e-05
-0.00025169
-3.15922e-05
-0.000251824
-3.33639e-05
-0.000251969
-3.50953e-05
-0.000252123
-3.67837e-05
-0.000252288
-3.8426e-05
-0.000252464
-4.00169e-05
-0.000252651
-4.15534e-05
-0.000252848
-4.30328e-05
-0.000253056
-4.44509e-05
-0.000253276
-4.58039e-05
-0.000253506
-4.70871e-05
-0.000253749
-4.82965e-05
-0.000254003
-4.94263e-05
-0.000254268
-5.04713e-05
-0.000254543
-5.14269e-05
-0.000254831
-5.22894e-05
-0.00025513
-5.30533e-05
-0.000255438
-5.37125e-05
-0.000255753
-5.42614e-05
-0.000256075
-5.46947e-05
-0.000256404
-5.50057e-05
-0.000256739
-5.51918e-05
-0.00025708
-5.52468e-05
-0.000257418
-5.51635e-05
-0.000257748
-5.49388e-05
-0.000258065
-5.45671e-05
-0.000258365
-5.40447e-05
-0.000258642
-5.33664e-05
-0.000258886
-5.25328e-05
-0.000259089
-5.15421e-05
-0.000259241
-5.03968e-05
-0.000259331
-4.90998e-05
-0.000259343
-4.76562e-05
-0.000259261
-4.60725e-05
-0.000259053
-4.43579e-05
-0.000258688
-4.25224e-05
-0.000258133
-4.05735e-05
-0.000257342
-3.85093e-05
-0.00025626
-3.62904e-05
-0.000254682
-3.38051e-05
-0.000252378
-3.07747e-05
-0.000248883
-2.657e-05
-0.000243097
-2.01202e-05
-0.000232213
-1.08901e-05
-0.00020964
-0.000167163
-2.55436e-06
-0.000248254
-5.10188e-06
-0.000248261
-7.64695e-06
-0.000248275
-1.01869e-05
-0.0002483
-1.27199e-05
-0.000248335
-1.52437e-05
-0.000248382
-1.7756e-05
-0.00024844
-2.02554e-05
-0.00024851
-2.2741e-05
-0.000248593
-2.52095e-05
-0.000248687
-2.76587e-05
-0.000248793
-3.00863e-05
-0.000248911
-3.24895e-05
-0.00024904
-3.48655e-05
-0.000249181
-3.72111e-05
-0.000249335
-3.95236e-05
-0.0002495
-4.18013e-05
-0.000249679
-4.40426e-05
-0.000249871
-4.6242e-05
-0.000250078
-4.83965e-05
-0.000250298
-5.05036e-05
-0.000250533
-5.25592e-05
-0.000250782
-5.4558e-05
-0.000251048
-5.64956e-05
-0.000251328
-5.83669e-05
-0.000251626
-6.01673e-05
-0.00025194
-6.18909e-05
-0.000252271
-6.35318e-05
-0.000252619
-6.50822e-05
-0.000252985
-6.65355e-05
-0.00025337
-6.78847e-05
-0.000253772
-6.91233e-05
-0.000254191
-7.02437e-05
-0.000254625
-7.12362e-05
-0.000255075
-7.20923e-05
-0.00025554
-7.28022e-05
-0.000256021
-7.33573e-05
-0.000256516
-7.37468e-05
-0.000257018
-7.39619e-05
-0.000257524
-7.39897e-05
-0.000258028
-7.38196e-05
-0.000258526
-7.34398e-05
-0.000259012
-7.2842e-05
-0.000259477
-7.20138e-05
-0.000259911
-7.09474e-05
-0.000260302
-6.96356e-05
-0.000260637
-6.80752e-05
-0.000260898
-6.62653e-05
-0.000261066
-6.42015e-05
-0.000261111
-6.18899e-05
-0.000260995
-5.93418e-05
-0.000260675
-5.65694e-05
-0.000260109
-5.35782e-05
-0.000259245
-5.03321e-05
-0.000257923
-4.67053e-05
-0.000256
-4.23498e-05
-0.000253233
-3.64206e-05
-0.000249021
-2.74848e-05
-0.000241143
-1.46288e-05
-0.00022249
-0.000181791
-3.10985e-06
-0.000245136
-6.22546e-06
-0.000245136
-9.33813e-06
-0.000245153
-1.24472e-05
-0.000245181
-1.55512e-05
-0.000245222
-1.8649e-05
-0.000245275
-2.17385e-05
-0.000245341
-2.48186e-05
-0.000245421
-2.78872e-05
-0.000245514
-3.09441e-05
-0.000245622
-3.39861e-05
-0.000245742
-3.70118e-05
-0.000245876
-4.00187e-05
-0.000246024
-4.30054e-05
-0.000246186
-4.59718e-05
-0.000246362
-4.89141e-05
-0.000246553
-5.18279e-05
-0.00024676
-5.4711e-05
-0.000246983
-5.75595e-05
-0.000247223
-6.0369e-05
-0.000247481
-6.3136e-05
-0.000247757
-6.58568e-05
-0.000248052
-6.85268e-05
-0.000248368
-7.11407e-05
-0.000248705
-7.36935e-05
-0.000249063
-7.61792e-05
-0.000249444
-7.859e-05
-0.00024985
-8.09183e-05
-0.00025028
-8.31576e-05
-0.000250737
-8.52984e-05
-0.000251221
-8.73281e-05
-0.000251734
-8.92374e-05
-0.000252274
-9.10134e-05
-0.000252841
-9.26433e-05
-0.000253438
-9.41108e-05
-0.000254066
-9.54015e-05
-0.000254725
-9.64945e-05
-0.000255417
-9.73683e-05
-0.000256138
-9.79997e-05
-0.000256885
-9.83648e-05
-0.000257658
-9.84324e-05
-0.000258453
-9.81709e-05
-0.000259267
-9.75458e-05
-0.000260097
-9.65176e-05
-0.000260935
-9.50439e-05
-0.000261771
-9.30803e-05
-0.000262596
-9.05818e-05
-0.000263391
-8.75023e-05
-0.00026414
-8.37929e-05
-0.000264816
-7.94167e-05
-0.00026537
-7.43454e-05
-0.000265743
-6.85847e-05
-0.000265865
-6.21706e-05
-0.000265655
-5.51803e-05
-0.000264908
-4.78e-05
-0.000263375
-4.04696e-05
-0.000260559
-3.40317e-05
-0.000255455
-2.86091e-05
-0.000246562
-1.81831e-05
-0.000232912
-0.000199971
-3.69616e-06
-0.000241429
-7.38226e-06
-0.00024144
-1.10684e-05
-0.000241458
-1.47535e-05
-0.000241487
-1.84373e-05
-0.000241529
-2.21191e-05
-0.000241584
-2.57991e-05
-0.000241653
-2.94768e-05
-0.000241735
-3.3151e-05
-0.000241831
-3.682e-05
-0.000241942
-4.04854e-05
-0.000242067
-4.41456e-05
-0.000242206
-4.77988e-05
-0.00024236
-5.1445e-05
-0.000242529
-5.50813e-05
-0.000242713
-5.8707e-05
-0.000242914
-6.23231e-05
-0.000243132
-6.59262e-05
-0.000243367
-6.95153e-05
-0.000243622
-7.30888e-05
-0.000243897
-7.66435e-05
-0.000244193
-8.01766e-05
-0.000244511
-8.36848e-05
-0.000244852
-8.71629e-05
-0.000245218
-9.06073e-05
-0.000245609
-9.40132e-05
-0.000246028
-9.73754e-05
-0.000246477
-0.000100689
-0.000246957
-0.000103946
-0.000247469
-0.000107139
-0.000248018
-0.000110259
-0.000248605
-0.000113293
-0.000249231
-0.00011623
-0.000249896
-0.000119056
-0.000250605
-0.000121752
-0.000251361
-0.0001243
-0.000252168
-0.000126679
-0.000253031
-0.000128862
-0.000253949
-0.000130816
-0.000254925
-0.000132504
-0.000255962
-0.000133884
-0.000257066
-0.000134907
-0.000258238
-0.000135513
-0.000259483
-0.000135636
-0.000260804
-0.000135193
-0.000262204
-0.000134096
-0.000263684
-0.000132234
-0.000265246
-0.000129483
-0.000266885
-0.0001257
-0.000268593
-0.000120717
-0.000270346
-0.000114348
-0.000272104
-0.000106418
-0.000273787
-9.67193e-05
-0.000275346
-8.50075e-05
-0.000276614
-7.11175e-05
-0.000277259
-5.52794e-05
-0.000276391
-3.8795e-05
-0.000271933
-2.39227e-05
-0.000261428
-1.10717e-05
-0.000245757
-0.000211038
-4.31923e-06
-0.000237102