/*--------------------------------*- C++ -*----------------------------------*\
| =========                 |                                                 |
| \\      /  F ield         | OpenFOAM: The Open Source CFD Toolbox           |
|  \\    /   O peration     | Version:  v1906                                 |
|   \\  /    A nd           | Web:      www.OpenFOAM.com                      |
|    \\/     M anipulation  |                                                 |
\*---------------------------------------------------------------------------*/
FoamFile
{
    version     2.0;
    format      ascii;
    class       volScalarField;
    location    "2.83";
    object      Qdot;
}
// * * * * * * * * * * * * * * * * * * * * * * * * * * * * * * * * * * * * * //

dimensions      [1 -1 -3 0 0 0 0];


internalField   nonuniform List<scalar> 
26400
(
644516
645256
646737
648967
651969
655755
660355
665804
672143
679415
687659
696951
707349
718935
731798
746038
761764
779109
798207
819219
842327
867752
895748
926584
960569
998103
1.03961e+06
1.08561e+06
1.1367e+06
1.1936e+06
1.11736e+06
1.14979e+06
1.18678e+06
1.22907e+06
1.27761e+06
1.25748e+06
1.29869e+06
1.34727e+06
1.30627e+06
1.31181e+06
1.32076e+06
1.33382e+06
1.35185e+06
1.37607e+06
1.40804e+06
1.44993e+06
1.50478e+06
1.57703e+06
1.67342e+06
1.80474e+06
1.98944e+06
1.63136e+06
1.81067e+06
2.09074e+06
2.61284e+06
512378
470286
439493
683260
5.22763e+06
646685
647420
648889
651105
654082
657848
662433
667852
674161
681404
689631
698897
709273
720844
733699
747938
763672
781029
800157
821208
844377
869885
897978
928927
963059
1.00075e+06
1.04245e+06
1.08865e+06
1.13996e+06
1.19712e+06
1.12083e+06
1.15317e+06
1.19008e+06
1.23231e+06
1.28077e+06
1.25929e+06
1.30031e+06
1.34867e+06
1.30082e+06
1.30553e+06
1.3136e+06
1.32579e+06
1.34299e+06
1.36645e+06
1.39776e+06
1.43928e+06
1.4943e+06
1.56773e+06
1.66713e+06
1.80511e+06
1.51091e+06
1.64941e+06
1.84642e+06
2.1585e+06
2.73878e+06
560029
522920
484355
721793
5.37302e+06
649922
650649
652111
654308
657256
660995
665537
670922
677191
684396
692584
701822
712190
723764
736631
750878
766639
784050
803254
824424
847750
873443
901764
932998
967475
1.00557e+06
1.04774e+06
1.0945e+06
1.14647e+06
1.20435e+06
1.12821e+06
1.16092e+06
1.19831e+06
1.24113e+06
1.29032e+06
1.26788e+06
1.30953e+06
1.35865e+06
1.30377e+06
1.30851e+06
1.31676e+06
1.32929e+06
1.34708e+06
1.37143e+06
1.40409e+06
1.44754e+06
1.50534e+06
1.58277e+06
1.68799e+06
1.83445e+06
1.54039e+06
1.69383e+06
1.91401e+06
2.26089e+06
2.89874e+06
616924
583369
533847
768443
5.52637e+06
653391
654107
655548
657717
660637
664328
668819
674145
680346
687485
695611
704790
715104
726624
739446
753682
769444
786872
806110
827340
850754
876583
905065
936504
971224
1.00962e+06
1.05214e+06
1.09929e+06
1.15172e+06
1.21013e+06
1.13406e+06
1.16691e+06
1.20449e+06
1.24757e+06
1.29709e+06
1.27332e+06
1.31516e+06
1.36453e+06
1.30206e+06
1.30625e+06
1.31401e+06
1.32613e+06
1.3436e+06
1.36772e+06
1.40032e+06
1.44402e+06
1.50254e+06
1.5814e+06
1.68928e+06
1.84015e+06
1.54727e+06
1.71208e+06
1.95511e+06
2.34531e+06
3.05898e+06
685619
653621
595022
837405
5.68422e+06
656987
657686
659088
661207
664059
667673
672080
677318
683425
690464
698493
707572
717789
729233
741987
756165
771882
789292
808550
829816
853305
879237
907873
939501
974467
1.01316e+06
1.05603e+06
1.10362e+06
1.15656e+06
1.21559e+06
1.13972e+06
1.17277e+06
1.21065e+06
1.25413e+06
1.30414e+06
1.27923e+06
1.32147e+06
1.3714e+06
1.30167e+06
1.30577e+06
1.31362e+06
1.32598e+06
1.3439e+06
1.36878e+06
1.40247e+06
1.44782e+06
1.50875e+06
1.59127e+06
1.70487e+06
1.44536e+06
1.56834e+06
1.74419e+06
2.01066e+06
2.44993e+06
3.26017e+06
763337
728064
656665
1.01111e+06
5.85342e+06
660768
661439
662785
664830
667594
671109
675401
680512
686478
693378
701267
710218
720307
731629
744272
758351
773998
791356
810585
831856
855373
881359
910079
941843
976992
1.01593e+06
1.05911e+06
1.10707e+06
1.16046e+06
1.22e+06
1.14433e+06
1.17751e+06
1.21559e+06
1.25934e+06
1.30973e+06
1.28357e+06
1.32606e+06
1.37637e+06
1.29914e+06
1.30275e+06
1.31012e+06
1.32211e+06
1.33976e+06
1.36448e+06
1.3983e+06
1.44394e+06
1.50547e+06
1.58905e+06
1.70423e+06
1.44222e+06
1.56859e+06
1.75247e+06
2.03888e+06
2.53213e+06
824954
836375
793724
713587
1.207e+06
6.03213e+06
664742
665373
666643
668579
671217
674582
678708
683649
689455
696187
703915
712702
722620
733770
746260
760198
775717
792964
812105
833324
856815
882820
911587
943449
978755
1.0179e+06
1.06134e+06
1.10964e+06
1.16343e+06
1.22348e+06
1.14814e+06
1.18142e+06
1.21971e+06
1.26376e+06
1.31458e+06
1.28721e+06
1.33007e+06
1.38087e+06
1.29628e+06
1.29963e+06
1.30694e+06
1.31904e+06
1.33701e+06
1.36234e+06
1.3971e+06
1.44416e+06
1.50779e+06
1.59454e+06
1.35562e+06
1.44721e+06
1.57601e+06
1.76536e+06
2.06151e+06
2.57221e+06
842491
870926
840518
763826
1.41716e+06
6.22746e+06
570863
573209
577907
672526
674951
678106
682030
686759
692350
698864
706367
714934
724651
735610
747905
761660
777013
794102
813106
834213
857627
883580
912357
944271
979668
1.01896e+06
1.06263e+06
1.1112e+06
1.16533e+06
1.22581e+06
1.15091e+06
1.18424e+06
1.22266e+06
1.26694e+06
1.31809e+06
1.28953e+06
1.33272e+06
1.29248e+06
1.29194e+06
1.29481e+06
1.30166e+06
1.31345e+06
1.33131e+06
1.35674e+06
1.39182e+06
1.43944e+06
1.50394e+06
1.59181e+06
1.3501e+06
1.44331e+06
1.57492e+06
1.769e+06
2.07326e+06
2.59785e+06
854987
901595
886173
814849
1.63746e+06
6.43039e+06
557230
559594
564333
571474
581062
681637
685317
689799
695139
701406
708655
716968
726425
737135
749181
762700
777824
794701
813510
834446
857718
883578
912296
944191
979601
1.01897e+06
1.06277e+06
1.11156e+06
1.16599e+06
1.22683e+06
1.15255e+06
1.18583e+06
1.22428e+06
1.26872e+06
1.32011e+06
1.29035e+06
1.33373e+06
1.2872e+06
1.28617e+06
1.28867e+06
1.29538e+06
1.30723e+06
1.32536e+06
1.35135e+06
1.38735e+06
1.43637e+06
1.50279e+06
1.5931e+06
1.34867e+06
1.44442e+06
1.57987e+06
1.77993e+06
2.09433e+06
2.63362e+06
868080
930129
930623
867361
1.86716e+06
6.63977e+06
542760
545134
549896
557075
566719
578890
593662
692783
697829
703783
710723
718723
727871
738270
750023
763240
778078
794692
813243
833945
857010
882695
911276
943059
978421
1.01778e+06
1.06163e+06
1.11054e+06
1.16515e+06
1.22626e+06
1.15283e+06
1.18595e+06
1.22433e+06
1.26881e+06
1.32037e+06
1.28947e+06
1.28506e+06
1.28024e+06
1.27852e+06
1.28044e+06
1.28673e+06
1.29833e+06
1.31644e+06
1.3427e+06
1.37935e+06
1.42951e+06
1.4979e+06
1.27321e+06
1.3436e+06
1.44134e+06
1.58077e+06
1.78811e+06
2.11577e+06
2.67627e+06
879454
952198
969770
917106
2.10009e+06
6.8598e+06
527661
530030
534786
541961
551602
563770
578550
596032
616334
705972
712548
720178
728957
738984
750364
763224
777714
793989
812220
832608
855384
880802
909148
940738
975944
1.0152e+06
1.059e+06
1.10791e+06
1.16258e+06
1.22381e+06
1.15157e+06
1.18441e+06
1.22259e+06
1.26697e+06
1.25035e+06
1.28648e+06
1.27709e+06
1.27148e+06
1.26907e+06
1.27047e+06
1.27639e+06
1.28775e+06
1.30584e+06
1.33229e+06
1.36944e+06
1.42055e+06
1.49029e+06
1.26425e+06
1.33674e+06
1.43771e+06
1.58225e+06
1.79842e+06
2.14412e+06
812212
889369
965650
1.00122e+06
968638
2.31943e+06
7.06768e+06
512083
514444
519181
526325
535923
548035
562741
580138
600348
623500
714092
721273
729609
739188
750129
762557
776620
792481
810305
830301
852693
877747
905750
937033
971971
1.01101e+06
1.05461e+06
1.10337e+06
1.15796e+06
1.21914e+06
1.14857e+06
1.18099e+06
1.21878e+06
1.26282e+06
1.24523e+06
1.52828e+06
1.26717e+06
1.26082e+06
1.2577e+06
1.25839e+06
1.26368e+06
1.27455e+06
1.29229e+06
1.31858e+06
1.35582e+06
1.40732e+06
1.47785e+06
1.25098e+06
1.32505e+06
1.42859e+06
1.57701e+06
1.79845e+06
2.14994e+06
802922
883249
969104
1.0282e+06
1.02648e+06
2.52233e+06
7.29298e+06
495928
498267
502970
510063
519588
531614
546221
563509
583597
606617
632729
722251
730051
739084
749448
761291
774764
790032
807294
826745
848619
873180
900717
931546
966075
1.00474e+06
1.04803e+06
1.09651e+06
1.15087e+06
1.21187e+06
1.14364e+06
1.17554e+06
1.21287e+06
1.25649e+06
1.23835e+06
1.52127e+06
1.25614e+06
1.24877e+06
1.24475e+06
1.24461e+06
1.24916e+06
1.25938e+06
1.27659e+06
1.30256e+06
1.33968e+06
1.39134e+06
1.46245e+06
1.23525e+06
1.31085e+06
1.41714e+06
1.57016e+06
1.79872e+06
2.15934e+06
793321
876714
972912
1.06019e+06
1.11306e+06
2.69869e+06
7.52825e+06
479341
481657
486309
493324
502751
514647
529097
546200
566077
588864
614716
643818
730171
738579
748315
759521
772343
786949
803527
822268
843426
867265
894085
924230
958091
996110
1.03879e+06
1.08673e+06
1.14059e+06
1.20115e+06
1.13614e+06
1.16732e+06
1.20397e+06
1.24691e+06
1.42873e+06
1.50996e+06
1.24339e+06
1.23503e+06
1.22997e+06
1.22881e+06
1.23238e+06
1.24169e+06
1.25809e+06
1.28328e+06
1.31975e+06
1.37092e+06
1.44176e+06
1.21472e+06
1.29097e+06
1.39916e+06
1.55652e+06
1.79517e+06
722426
785951
871422
983278
1.11e+06
1.16321e+06
2.86938e+06
7.82052e+06
461983
464265
468845
475757
485049
496783
511035
527906
547514
569997
595515
624247
656409
737588
746581
757014
769034
782812
798543
816449
836770
859784
885787
915129
948191
985419
1.02732e+06
1.07447e+06
1.12756e+06
1.18736e+06
1.12664e+06
1.15689e+06
1.19264e+06
1.23477e+06
1.41424e+06
1.49482e+06
1.22963e+06
1.21994e+06
1.21358e+06
1.21118e+06
1.21354e+06
1.22167e+06
1.2369e+06
1.26101e+06
1.29641e+06
1.34654e+06
1.41632e+06
1.18981e+06
1.26529e+06
1.37292e+06
1.52996e+06
1.76834e+06
700012
765978
859423
992714
1.18052e+06
1.25586e+06
3.08524e+06
8.20799e+06
444223
446447
450917
457663
466733
478189
492108
508584
527745
549719
574677
602798
634289
669408
743413
753018
764197
777100
791928
808893
828216
850170
875065
903260
935160
971210
1.01192e+06
1.05787e+06
1.10974e+06
1.16832e+06
1.11339e+06
1.14239e+06
1.17688e+06
1.32494e+06
1.39335e+06
1.47274e+06
1.21349e+06
1.20238e+06
1.19459e+06
1.19074e+06
1.19163e+06
1.19827e+06
1.21197e+06
1.23447e+06
1.26816e+06
1.31639e+06
1.38396e+06
1.1589e+06
1.23217e+06
1.3373e+06
1.4912e+06
1.72497e+06
671894
738931
840144
997828
1.26015e+06
1.41985e+06
3.33285e+06
8.66788e+06
426038
428197
432533
439080
447872
458980
472483
488474
507067
528398
552625
579926
610508
644611
682501
747542
757534
769212
782776
798446
816470
837127
860732
887619
918199
952912
992266
1.03682e+06
1.08721e+06
1.14419e+06
1.09702e+06
1.12439e+06
1.15719e+06
1.2996e+06
1.36591e+06
1.44301e+06
1.19524e+06
1.18232e+06
1.17274e+06
1.16711e+06
1.16617e+06
1.17094e+06
1.18263e+06
1.20294e+06
1.23415e+06
1.27944e+06
1.34338e+06
1.12094e+06
1.19017e+06
1.29e+06
1.43632e+06
1.6582e+06
635708
701060
806432
984352
1.32154e+06
1.54206e+06
3.62021e+06
9.28469e+06
407311
409386
413551
419837
428282
438951
451921
467282
485150
505650
528941
555200
584627
617449
653920
694336
749197
759464
771518
785569
801845
866698
899224
935826
976975
1.0232e+06
1.07514e+06
1.13349e+06
1.19909e+06
1.10994e+06
1.07334e+06
1.0989e+06
1.20989e+06
1.26477e+06
1.32871e+06
1.40313e+06
1.17504e+06
1.16017e+06
1.14851e+06
1.14069e+06
1.13745e+06
1.13974e+06
1.14876e+06
1.16609e+06
1.19379e+06
1.23483e+06
1.2932e+06
1.3751e+06
1.13849e+06
1.23085e+06
1.36612e+06
1.5704e+06
592562
651199
751035
938003
1.34368e+06
1.74442e+06
3.95042e+06
1.03722e+07
388105
390068
394017
399975
407985
418106
430411
444986
461947
481418
503540
528491
556456
587662
622356
660812
703341
747506
757884
791355
814866
841516
871657
905660
943986
987133
1.03569e+06
1.09031e+06
1.15177e+06
1.22096e+06
1.04339e+06
1.0657e+06
1.1661e+06
1.21653e+06
1.27565e+06
1.34487e+06
1.14647e+06
1.12956e+06
1.1159e+06
1.10604e+06
1.10068e+06
1.10071e+06
1.10725e+06
1.12177e+06
1.1462e+06
1.18321e+06
1.23654e+06
1.31168e+06
1.08256e+06
1.16602e+06
1.2887e+06
1.47401e+06
547061
599145
696104
894663
1.37406e+06
2.11364e+06
4.25319e+06
1.17547e+07
368414
370255
373945
379513
386999
396456
407952
421573
437423
455616
476296
499619
525764
554942
587383
623346
663126
707046
747668
765928
786820
810616
837635
868237
902840
941904
985953
1.0356e+06
1.09154e+06
1.15455e+06
1.00436e+06
1.07142e+06
1.10873e+06
1.15281e+06
1.20469e+06
1.26562e+06
1.10743e+06
1.08646e+06
1.0684e+06
1.05379e+06
1.04324e+06
1.03756e+06
1.03779e+06
1.04524e+06
1.06163e+06
1.0893e+06
1.13147e+06
1.19264e+06
1.17995e+06
1.04852e+06
1.15025e+06
1.30475e+06
479221
518217
602247
798940
1.31392e+06
2.73314e+06
4.89028e+06
1.26799e+07
348059
349743
353131
358243
365111
373792
384351
396858
411412
428120
447104
468514
492518
519302
549076
582079
618578
707402
720778
736295
754182
774681
798066
824656
854808
888927
927465
970939
1.01994e+06
1.07512e+06
957880
1.0094e+06
1.03946e+06
1.07523e+06
1.11753e+06
1.16727e+06
1.22559e+06
1.03689e+06
1.01348e+06
992668
974909
960761
950919
946315
948154
958118
978615
1.01182e+06
1.06074e+06
982339
901457
970078
1.0703e+06
349682
356954
379553
456743
495783
1.67956e+06
1.18615e+07
328886
330549
333890
338927
345699
354259
364685
377061
391474
408053
426934
448276
472257
499083
528988
562233
682803
693909
707055
722450
740337
760998
784737
811915
842921
878214
918319
963822
1.01542e+06
1.07393e+06
970710
998062
1.03118e+06
1.07093e+06
1.11833e+06
1.17459e+06
1.02009e+06
995394
973653
955385
941279
932180
929116
933406
946677
970892
1.00824e+06
1.06382e+06
980404
922956
1.01863e+06
1.16525e+06
380813
404291
449622
535297
744840
1.51262e+06
4.21227e+06
1.28073e+07
309394
311005
314246
319136
325726
334064
344223
356283
370353
386553
405024
425928
449446
475791
505198
651919
660136
670167
682215
696487
713234
732737
755292
781263
811065
845151
884044
928342
978746
1.03605e+06
918609
944450
976104
1.01446e+06
1.06055e+06
940047
910474
883586
859880
839952
824530
814552
811181
816065
831343
859993
906163
842744
805680
867578
988023
323884
338112
363273
407268
494298
706838
1.74874e+06
4.59441e+06
1.28586e+07
291224
292793
295940
300696
307097
315201
325078
336817
350528
366335
384384
404832
427875
453739
625765
631596
639061
648333
659628
673167
689211
708045
730008
755475
784883
818733
857587
902080
952984
1.01119e+06
882918
909647
942712
983114
904575
873497
845182
820091
798785
781953
770436
765305
767981
780306
804716
844585
810282
770377
736806
890460
1.02977e+06
308794
325686
353627
402363
497164
724203
1.93198e+06
4.71467e+06
1.29373e+07
273740
275238
278256
282817
288957
296734
306224
317519
330720
345952
363353
383093
405362
600150
603678
608624
615152
623435
633681
646117
661019
678688
699467
723722
751895
784509
822143
865442
915171
972234
836822
862812
895222
862047
828205
796968
768718
743908
723128
707071
696647
693007
697607
712445
740175
784464
706305
673727
648467
862084
1.01324e+06
291394
313905
346154
396156
488162
707295
1.94371e+06
5.01079e+06
1.33056e+07
257635
259065
261948
266308
272181
279627
288724
299557
312228
326867
343606
362589
578153
579731
582525
586679
592361
599757
609075
620546
634443
651081
670818
694053
721257
752971
789788
832399
881595
938326
798551
824762
857665
803962
771137
741170
714462
691494
672910
659446
652102
652139
661169
681504
716170
769407
658013
632804
615988
889745
1.05696e+06
295507
320563
354161
405315
497890
709037
1.88838e+06
5.08822e+06
1.3984e+07
242978
244338
247084
251237
256840
263942
272617
282958
295104
309173
325278
559285
559293
560249
562329
565692
570530
577032
585429
595916
608757
624269
642843
664927
690995
721640
757442
799093
847370
903213
760777
786585
783897
748864
716431
687008
661001
638906
621364
609093
603111
604737
615648
638259
675788
624379
596619
577720
569987
882994
1.06287e+06
298429
327447
362567
411583
496885
694657
1.80534e+06
5.28306e+06
1.50764e+07
229820
231132
233763
237730
243073
249828
258033
389520
407782
428995
453350
481076
512458
547819
587525
631950
681559
736850
590244
624839
663505
706754
755169
809409
890411
896111
906094
920964
904868
923181
727713
753354
737068
702578
670857
642348
617512
596832
580892
570439
566560
570642
584612
611085
653568
582274
560112
548508
886914
91765.5
104299
115460
125008
133131
140649
150004
166538
204325
231291
161666
311489
313497
317535
323642
331885
342345
355129
370377
388258
408953
432675
459687
490278
524764
563523
606978
655599
540108
569875
603275
640753
682827
730069
783138
857377
862501
871921
886193
905954
887267
929503
939719
956671
981394
1.01525e+06
1.02182e+06
908650
889315
877092
873072
878913
896766
907356
861666
825264
800434
790744
801787
842801
90764.2
103336
114394
123410
130126
135236
140906
152854
185392
219401
152881
297229
299178
303087
308994
316971
327104
339492
354279
371626
391715
414777
441059
470862
504503
542381
584943
497179
522704
551475
583882
620372
661460
707722
759831
828064
832861
842008
856048
875603
901429
895513
906179
923694
949124
983827
973812
942738
849912
839985
838506
847042
909062
859605
818277
786615
767128
763975
783404
834533
92639.1
104692
114668
122341
127685
131087
134267
141225
162206
201865
145193
285288
287168
290949
296668
304395
314213
326228
340582
357434
376964
399409
425016
454087
486957
524017
565676
482547
507326
535327
566960
602667
642973
688451
739790
797782
807028
816073
830069
849675
875647
866606
877863
896091
922343
968396
933025
903635
880935
808624
809234
820033
863515
816814
778273
749454
733417
734971
762693
81697.2
93689.9
104695
114131
121247
125517
127233
127689
131003
148008
191824
138524
275119
276942
280613
286180
293691
303243
314936
328906
345323
364368
386271
411296
439749
471975
508386
448756
469903
493956
521265
552230
587289
626939
671775
722507
779938
784099
793121
807176
826915
853105
841084
852951
871955
899146
930549
896758
869060
848144
781370
784117
797354
823969
780397
745075
719831
707664
713590
746353
82170.7
94296.9
105064
113820
120020
123279
123774
122357
122069
131257
173369
131841
266620
268389
271969
277395
284735
294062
305484
319127
335173
353812
375263
399799
427734
459426
436276
464236
459057
482591
509385
539845
574416
613602
658030
708399
765531
764384
773514
787743
807736
834290
819236
831818
851601
879832
897057
864876
838870
819646
808166
762765
778311
788208
747286
714637
692245
683251
692888
729792
82279.4
94295.8
104859
113472
119410
122024
121024
117568
114637
120008
155329
125409
259538
261284
264800
270122
277308
286448
297642
311032
326781
345088
366186
390344
417857
449077
427203
454691
450019
473176
499607
529721
563970
602874
647055
697230
754254
747291
756582
771074
791370
818336
800054
813322
833941
902545
866240
835648
811323
793951
784385
744257
800994
755644
717647
688155
669434
665061
681050
725962
83809
95492.6
105465
113239
118244
119988
118154
113417
107836
107516
132511
117900
253792
255509
258974
264213
271287
280287
291311
304510
320044
338117
358964
382850
410099
396216
420079
447145
477819
465664
491923
521884
556010
594825
638967
689195
746353
732922
742488
757306
778072
805632
783936
798067
819790
873623
838777
809806
787220
771687
764147
729325
769113
726169
690669
663856
648278
648306
672018
74119.8
85618.6
96346.4
105781
113293
118057
119185
116188
109678
101783
98104.5
116080
109923
249221
250916
254325
259499
266492
275400
286318
299396
314805
332740
353420
377144
404209
391050
414673
441524
472014
460002
486201
516166
550340
589278
633613
684114
741669
720886
730836
746140
767517
795854
770315
785338
885521
846647
813320
785980
765112
751491
746083
750454
738853
698558
665755
641932
629649
633421
661448
74761.9
86413.6
97004
105948
112712
116645
117021
113561
106381
96785.7
89030.9
98693.4
100259
245692
247368
250747
255881
262832
271688
282560
295584
310937
328828
349476
373190
366913
387522
411015
437753
468161
502703
482379
512539
546991
586295
631071
682119
740386
711268
721772
737718
759885
789182
759409
775606
859622
822056
790282
764635
745667
734150
731204
738474
710924
673121
643123
622455
613814
621835
654904
75807.9
87475.4
97969
106807
113322
116614
116286
111960
103539
92094.9
81470.4
84605.9
90212.7
243093
244768
248145
253272
260204
269048
279914
292931
308301
326221
346950
346844
364821
385424
408943
435761
466303
501065
480475
510994
545920
585794
631287
683220
742547
703900
715094
731875
755064
785578
750914
876895
835157
799097
768929
745079
728143
718990
718888
726537
684345
649318
622428
605607
602034
617005
659224
78157
89457.7
99281
107268
112650
115155
114215
109261
100041
87166.4
73458.6
70349.7
77718.5
241355
243030
246413
251549
258495
267362
278264
291337
306779
324811
345684
345888
363960
384698
408391
435439
466273
501382
541373
511393
547095
587860
634402
687543
748347
698826
710866
728752
729104
733840
745275
853053
812496
777823
749296
727349
712632
706134
709212
698407
658904
626852
603393
590934
593626
618787
70599.6
81714.1
92036.5
101206
108391
113089
114759
112954
107096
96987.4
83124
67013.1
57987.5
62121.1
240361
242047
245449
250607
257608
266542
277525
290717
306321
324559
330214
346019
364258
385215
409225
436664
468004
503745
544525
513798
550416
592311
640174
694899
757543
695595
708696
727795
722477
728291
874481
829626
790531
757479
730754
710927
698781
695344
702182
670531
633854
605093
585850
578981
589392
624854
73635.2
84696.3
94630.8
102924
109058
112510
112480
108850
101418
90432.3
75730.4
58109
45510.5
42639.6
239952
241658
245101
250322
257403
266438
277555
290929
306763
317302
331101
347137
365667
386995
411469
439493
471532
508147
550000
518261
556121
599529
649199
706058
771161
695050
709513
730189
718526
901234
852026
808466
770881
739490
714844
697616
688668
689204
686225
645419
611967
587001
572592
572393
593644
67177
78114.1
88470.3
97694.5
105164
110273
112052
110126
104705
95687.9
83950.7
69807.2
54041.8
28350.3
20754.1
240111
241756
245074
250117
256958
265691
276446
289377
304666
315910
329134
344508
362275
382706
406110
432879
463437
498275
538021
583350
543714
584981
632074
685783
747033
684478
696133
713455
705777
899219
848056
802144
761868
727524
699533
678489
665072
659843
671245
627187
589553
559153
537325
526263
529945
555098
65158.8
74384.7
82510.3
89214.6
94063.5
96535.5
96059.9
92132.2
84940.3
75150.8
63512
51546.7
35895.6
26390.9
240903
242492
245705
250579
257182
265620
275997
288481
304498
315347
328068
342828
359885
379506
401966
427632
456921
490306
528364
571745
621213
573991
619281
670760
729301
795985
692774
708184
706480
891191
908799
936374
903082
871623
848145
833611
669776
662012
662880
646143
606285
572901
546940
530227
526113
540684
61065.4
70504.7
79210.2
86808.8
93010
97372.3
99134.3
97573.3
92279.4
83435.8
71098.5
57019.3
41009.4
28820.3
242168
243698
246802
251521
257909
266064
276103
288193
304891
315340
327597
341838
358268
377150
398753
423415
451534
483575
520060
615273
659984
564321
607933
657422
713573
777379
689353
702654
877887
884757
899728
923762
911605
877431
850661
832043
822678
658673
655982
654819
612800
576947
547807
526694
516086
520160
546323
65547.1
74648.9
82483.6
89079
94118.7
97091.8
97317.4
93998.3
86807.6
75767.9
61764.1
45009.8
30959
243981
245472
248493
253079
259276
267195
276948
297499
306054
316198
328086
341901
357836
376117
397026
420887
448066
538537
571040
608549
651736
701365
600152
648338
702841
764599
834654
701501
878907
884293
897319
918920
950426
888821
859896
838637
825970
823259
657666
662041
626480
588927
557545
533560
519109
518358
538438
63379.1
72329.7
80265.8
87142.3
92700.1
96366.1
97388.2
95114.2
88934.5
78842.5
65226.3
48586.1
32627.2
246101
247565
250507
254973
261019
268730
292409
299347
307723
317629
329216
342668
358177
375983
396367
419656
508682
536228
568053
604647
646700
695017
595272
642397
695791
756265
824850
702939
882241
886457
898004
917858
947141
900809
869815
846145
830536
824025
828483
723939
635491
596087
562423
535516
517463
512044
526171
60495.3
69057.2
76991
84257.4
90516.1
95211.2
97496.1
96441.6
91235.4
81842.5
68469.2
51356.5
33765
248521
249944
252821
257196
263109
270664
294783
301592
309782
319479
330816
343964
359135
376530
464467
484749
508297
535450
566641
602380
643323
690221
744040
637794
690404
749885
817286
704636
885406
888849
899572
918326
946150
912753
880618
855695
838565
830104
831824
845982
647838
607092
571672
542497
521376
511961
520923
58363.8
66727.4
74599.6
81834.9
88184.6
93206.3
96242.3
96225
92185.6
83694.4
70923
53743.4
34634.8
251418
252800
255615
259886
265700
292246
297713
304429
312466
321980
333094
345998
360939
448797
466112
486326
509678
536473
567172
602321
642490
688483
741285
636015
688063
746875
813348
707781
889777
892494
902213
919809
946349
923355
890409
864596
846425
836617
836644
848520
676806
616359
578874
547154
522835
508893
511542
55371.9
63666.3
71760.9
79389.2
86270.2
91969.9
95738.5
96589
93450.4
85660.6
73229.4
55606.4
34761
254515
255883
258647
287983
291263
295567
300984
307613
315514
324847
335719
423838
436416
451314
468696
488814
511959
538448
568746
603367
642876
688051
793807
860431
687353
746081
812143
886674
895637
898036
907228
924052
949464
984872
900348
873442
854191
843453
842532
852964
686537
651404
586909
553733
527343
510043
506493
527192
61101.3
69359
76863.8
83663.8
89596.3
93992.3
95743.3
93649.1
86845.6
75163
57070.5
34376.8
287056
287797
289343
291732
295010
299284
304653
311193
318983
328194
416655
427306
440002
454901
472239
492257
515216
541475
571461
605689
644757
737060
794650
860813
688557
747221
813212
887573
902149
904212
912934
929190
954029
988769
910910
883203
863041
851304
849480
739339
696607
660070
595096
560181
531697
511580
503675
515667
58983.6
67033.3
74442.6
81420.8
87734.4
92683
95171
93926.5
88004.5
76842.7
58115.4
32651.3
291057
291827
293386
295788
299071
303323
308640
315082
404372
411749
420683
431456
444212
459126
476418
496323
519148
545246
575019
608960
689848
739924
797202
862705
937756
749688
816053
890591
909366
911151
919569
935393
959788
994047
921226
892849
871962
859560
856894
749320
705370
667559
636420
566589
536718
514725
504221
512465
57313.6
64754.4
71652
78392.2
84826.1
90237.6
93429.2
93103.9
88454.8
78255.4
58682.6
29391.9
295342
296115
297702
300122
303419
393761
397785
402794
408939
416394
425416
436230
448991
463903
481141
500974
523720
549724
579392
650496
694360
744460
801730
867146
942119
754215
820694
895392
916844
918453
926686
942352
966501
1.00048e+06
931346
902287
880833
867827
864503
758803
714143
675447
643231
573304
542512
518678
505196
509021
55386.9
62114.7
68607.4
75311.1
81958.5
87701.8
91345.5
91642.2
88355.3
79410.6
58846.8
23179.3
299800
300584
390989
392807
395340
398624
402735
407821
414039
421541
430580
441403
454162
469028
486228
506041
528761
554768
584457
655892
699895
750129
807469
872966
947926
759744
826594
901683
924791
926255
934366
950006
974017
1.00775e+06
941302
911689
889757
876257
872555
767904
722665
683266
650215
624423
548161
523097
506913
506033
53186.2
58940.4
64821.3
71383.5
77995.5
83752.7
87569.5
88122.5
86935.5
80048.2
58763.3
12831.4
394098
394702
395924
397826
400434
403788
407990
413163
419431
426999
436100
446936
459689
474532
491697
511478
534192
560178
623142
661947
706274
756833
814422
880021
954805
1.04019e+06
833451
909286
933220
934609
942593
958319
982376
1.01601e+06
951193
921020
898631
884806
880837
776847
731239
691563
658196
631903
555284
528759
510252
504113
50520.5
55089.9
60406.2
67066.1
73504.4
78817.4
82224.2
80974
83205.9
79405.1
59642.9
-2841.89
399170
399798
401080
403049
405725
409182
413492
418764
425139
432775
441923
452783
465520
480326
497457
517208
539932
595344
629580
668753
713508
764547
822680
888813
964125
1.04996e+06
842313
918608
932300
948962
1.07709e+06
956216
961437
975015
998325
962443
931415
909696
898641
783456
736360
695289
660537
612900
581995
557695
541485
536082
546056
579629
653351
183324
184742
176618
158448
131317
99185.9
69750
70657.8
397316
404401
405058
406374
408422
411180
414749
419199
424621
431127
438879
448077
458955
471650
486394
503472
523192
545943
601911
636478
676021
721248
772884
831736
898718
974830
1.06138e+06
852136
928792
934416
956666
1.08309e+06
964431
969660
983190
1.0064e+06
970392
938968
916895
905501
791804
744488
703343
668663
621472
590795
566971
551492
547292
559555
597816
679259
193489
193409
183841
164343
135893
102308
71518.6
70802.4
393829
281053
282605
285759
290525
296960
305124
315113
327016
340948
357061
375552
396632
420543
447527
477947
542134
572937
608131
648200
693712
745430
804118
846897
862007
882919
910310
944868
987492
942348
964730
1.08903e+06
972789
977975
991567
1.01488e+06
978288
946559
924178
912452
799953
752449
711292
676762
629878
599650
576464
562069
559502
574631
619402
200365
204536
201992
190938
170239
140561
105529
73250
70852.3
392031
285163
286748
289947
294782
301301
309595
319729
331790
345890
362205
380902
402197
426309
453529
484232
548665
579817
615406
655912
701936
754211
813562
855528
870996
892277
920001
954941
997998
950645
973118
1.09488e+06
981282
986570
1.00027e+06
1.02685e+06
986255
954272
931574
919479
807934
760353
719262
684858
638372
608596
586182
572852
571749
588737
635465
208419
212597
209478
197526
175782
144937
108639
74996.3
70910.2
389621
289136
290760
294008
298916
305526
313923
324189
336396
350703
367226
386147
407674
432044
459543
527762
555336
586906
622926
663916
710472
763349
823327
864259
879992
901590
929689
965029
1.00856e+06
958871
981677
1.10085e+06
1.0648e+06
995362
1.0094e+06
1.03531e+06
994465
962195
939137
926450
925810
768221
727405
693227
647038
617806
596149
583952
584464
603470
652117
216210
220141
216385
203684
181100
149217
111623
76621
70904.8
388270
293163
294800
298091
303079
309793
318302
328705
341083
355570
372319
391493
413299
437981
465811
534322
562276
594260
630732
672226
719340
772798
833444
902244
889228
911204
939626
975349
1.01934e+06
967290
989545
1.01666e+06
1.07103e+06
1.00477e+06
1.01893e+06
1.04388e+06
1.00281e+06
970373
947321
934360
933658
776631
735817
701676
655819
627033
606207
595427
598015
620034
672521
224733
227872
223147
209515
185997
153157
114506
78253.6
70971.6
386409
297254
298918
302270
307322
314135
322787
333324
345878
360568
377541
396971
419079
444093
472288
541119
569460
601888
638844
680865
728577
782704
844069
913683
898839
921097
949796
985776
1.06387e+06
975399
998194
1.02573e+06
1.07682e+06
1.01403e+06
1.02857e+06
1.05249e+06
1.01135e+06
978800
955506
942549
941770
784984
744095
710084
664473