/*--------------------------------*- C++ -*----------------------------------*\
| =========                 |                                                 |
| \\      /  F ield         | OpenFOAM: The Open Source CFD Toolbox           |
|  \\    /   O peration     | Version:  v1906                                 |
|   \\  /    A nd           | Web:      www.OpenFOAM.com                      |
|    \\/     M anipulation  |                                                 |
\*---------------------------------------------------------------------------*/
FoamFile
{
    version     2.0;
    format      ascii;
    class       volScalarField;
    location    "2.83";
    object      qr;
}
// * * * * * * * * * * * * * * * * * * * * * * * * * * * * * * * * * * * * * //

dimensions      [1 0 -3 0 0 0 0];


internalField   uniform 0;

boundaryField
{
    outlet
    {
        type            calculated;
        value           nonuniform List<scalar> 
60
(
-886227
-886332
-886558
-886907
-887355
-887924
-888595
-889369
-890222
-891158
-892203
-893317
-894511
-895756
-897050
-898388
-899760
-901136
-902545
-903975
-905397
-906784
-908103
-909377
-910588
-911655
-912592
-913363
-913921
-914237
-914231
-914002
-913516
-912743
-911603
-910074
-908220
-905919
-903146
-899871
-896102
-891824
-887001
-881534
-875372
-868391
-860436
-851273
-840576
-827809
-812143
-792367
-767970
-736142
-692225
-627915
-550375
-452823
-319293
-91783.3
)
;
    }
    walls
    {
        type            calculated;
        value           nonuniform List<scalar> 
496
(
9989.02
10889.7
11571.2
12118.4
12575.4
12965.6
13301.2
13584.8
13807.7
14389.3
14753.6
15069.7
15354.9
15617.5
15862.2
16092.1
16309.2
16515
16710.3
16896
17072.9
17241.6
17402.5
17556.1
17702.7
17842.5
17975.8
18102.7
18223.6
18338.5
18447.5
18550.8
18648.4
18740.4
18826.9
18907.9
18983.5
19053.6
19118.3
19177.5
19231.3
19279.5
19322.2
19359.3
19390.6
19416.2
19435.8
19449.3
19456.6
19457.4
19451.5
19438.5
19418
19389.6
19352.3
19305.1
533523
524682
515169
505622
496251
487137
478318
469815
461629
453765
446228
439010
432106
425504
419195
413171
407417
401919
396669
391637
386513
381457
376798
372418
368338
364527
360934
357525
354351
351317
348454
345724
343123
340614
338216
336002
333817
331740
329760
327893
325952
324104
322369
320725
319163
317673
316248
314881
313570
312319
311110
309947
308827
307747
306705
305700
304730
303795
302891
302019
301177
300364
299580
298823
298092
297386
296703
296043
295404
294784
294182
293599
293031
292477
291938
291412
290896
290389
289892
289407
288930
288461
287998
287540
287087
286638
286190
285742
285294
284844
284392
283936
283476
283011
282540
282062
281575
281079
280574
280058
279530
278993
278440
277873
277292
276696
276082
275451
274800
274126
273437
272726
271993
271238
270458
269654
268825
267969
267088
266179
265241
264280
263289
262268
261216
260133
259018
257870
256691
255478
254235
252960
251652
250309
248930
247514
246060
244566
243032
241456
239838
238179
236477
234733
232946
231116
229243
227326
225367
223365
221319
219231
217093
214914
212696
210434
208130
205783
203392
200958
198482
195963
193403
190801
188157
185472
182745
179979
177174
174331
171452
168538
165589
162607
159594
156549
153476
150378
147255
144109
140941
137753
134547
131323
128084
124829
121560
118278
114986
111686
108378
105065
101750
98419.2
95088.6
91769.1
88435.5
85104.5
81787.6
78473.2
75164.1
71864.8
68555.7
65263.3
61986
58719
55482.8
52236.7
49010.5
45816.6
42608.9
39437
36299.3
33171.1
30061.2
26948.4
23887.8
20888
17918.6
14945.1
11972.9
9060.99
6191.78
3331.92
542.634
-2181.9
-4944.19
-7626.25
-10217.5
-12797.1
-15308.5
-17741.6
-20117
-22435.3
-24694.3
-26892.6
-29029.7
-31090.6
-33088.4
-35055.6
-36929.1
-38737.6
-40507.4
-42198.6
-43843.6
-45425.7
-46941.2
-48438.1
-49847.7
-51232.1
-52538
-53788.1
-54984.7
-56148.4
-57263.7
-58296.9
-59319.1
-60310.3
-61230.1
-62087.2
-62917.6
-63695.7
-64436.2
-65157.7
-65841.9
-66471.8
-67050.1
-67613.7
-68140.7
-68620.6
-69053.7
-69493.5
-69915.7
-70260.8
-70584.7
-70885
-71146
-71380.8
-71597.3
-71796.8
-71966.6
-72114.3
-72219.8
-72306
-72367.1
-72421.7
-72459
-72452.5
-72440.2
-72410.5
-72352
-72279.8
-72194.4
-72081.2
-71949.8
-71814.7
-71668.2
-71499.3
-71320.6
-71116.8
-70891.2
-70663.4
-70433.2
-70174.8
-69903.5
-69624.8
-69341
-69039.7
-68719.7
-68393.2
-68064.1
-67725
-67385.6
-67034.7
-66654.7
-66266.9
-65872.7
-65469.3
-65055.6
-64637.9
-64217.8
-63784.9
-63341
-62889.3
-62433
-61969.2
-61496.7
-61018.2
-60534.9
-60042.8
-59543.9
-59037.8
-58525.8
-58010.8
-57488.8
-56960.2
-56426.7
-55888
-55342.2
-54789.6
-54238
-53683
-53114.1
-52544
-51968.9
-51385.5
-50797.9
-50206
-49609.8
-49009.2
-48404
-47794.3
-47180.4
-46562.4
-45940
-45313.6
-44683.3
-44049.4
-43412
-42771.2
-42127.2
-41479.8
-40828.8
-40173.9
-39515.4
-38853.8
-38189.8
-37523.1
-36852.4
-36178
-35500
-34818.6
-34134.2
-33446.7
-32756.3
-32062.8
-31366.3
-30667.2
-29965.5
-29260.5
-28552.6
-27841.6
-27127.6
-26410.7
-25690.9
-24968.3
-24243
-23515.2
-22785.1
-22052.3
-21316.4
-20577.5
-19836.1
-19092
-18344.4
-17593.9
-16840.8
-16084.8
-15325.7
-14563.5
-13798.5
-13030.5
-12259.5
-11485.6
-10708.7
-9928.82
-9145.94
-8360.24
-7571.38
-6778.82
-5982.76
-5183.33
-4380.57
-3574.52
-2765.05
-1952.04
-1135.57
-315.692
507.8
1335.19
2166.54
3001.88
3841.23
4684.65
5532.22
6383.99
7240.05
8100.5
8965.42
9834.89
10709
11587.8
12471.4
13359.9
14253.5
15152.3
16056.8
16967.2
17884
18807.8
)
;
    }
    symmetry
    {
        type            symmetryPlane;
    }
    frontAndBack
    {
        type            empty;
    }
    inlet
    {
        type            calculated;
        value           nonuniform List<scalar> 3(137647 154111 188038);
    }
    oxidizer
    {
        type            calculated;
        value           uniform 194373;
    }
}


// ************************************************************************* //
