/*--------------------------------*- C++ -*----------------------------------*\
| =========                 |                                                 |
| \\      /  F ield         | OpenFOAM: The Open Source CFD Toolbox           |
|  \\    /   O peration     | Version:  v1906                                 |
|   \\  /    A nd           | Web:      www.OpenFOAM.com                      |
|    \\/     M anipulation  |                                                 |
\*---------------------------------------------------------------------------*/
FoamFile
{
    version     2.0;
    format      ascii;
    class       volScalarField;
    location    "2.83";
    object      rho;
}
// * * * * * * * * * * * * * * * * * * * * * * * * * * * * * * * * * * * * * //

dimensions      [1 -3 0 0 0 0 0];


internalField   nonuniform List<scalar> 
26400
(
0.178969
0.17897
0.178971
0.178972
0.178974
0.178977
0.17898
0.178984
0.178988
0.178994
0.179001
0.179009
0.179017
0.179028
0.17904
0.179054
0.17907
0.179089
0.179109
0.179132
0.179158
0.179187
0.17922
0.179256
0.179297
0.179343
0.179394
0.179451
0.179515
0.179587
0.179668
0.179756
0.179853
0.179958
0.180073
0.1802
0.180337
0.180486
0.180648
0.180823
0.181013
0.181218
0.181439
0.181679
0.181939
0.182225
0.18254
0.182891
0.183291
0.183753
0.184303
0.184981
0.185811
0.186884
0.188358
0.190528
0.193326
0.19715
0.203019
0.215254
0.178924
0.178924
0.178925
0.178926
0.178928
0.17893
0.178933
0.178937
0.178941
0.178946
0.178953
0.178961
0.178969
0.17898
0.178992
0.179006
0.179022
0.17904
0.179061
0.179084
0.17911
0.17914
0.179174
0.179211
0.179253
0.1793
0.179353
0.179412
0.179478
0.179552
0.179635
0.179726
0.179825
0.179934
0.180053
0.180184
0.180326
0.18048
0.180648
0.18083
0.181025
0.181236
0.181464
0.18171
0.181977
0.182269
0.182591
0.182949
0.183355
0.183823
0.184382
0.185043
0.185855
0.186906
0.188352
0.190496
0.19326
0.19704
0.202834
0.214908
0.178865
0.178865
0.178866
0.178868
0.178869
0.178871
0.178874
0.178878
0.178882
0.178887
0.178893
0.178901
0.17891
0.178921
0.178933
0.178947
0.178963
0.178981
0.179001
0.179025
0.179052
0.179082
0.179117
0.179155
0.179199
0.179248
0.179302
0.179363
0.179432
0.179508
0.179594
0.179688
0.179791
0.179904
0.180028
0.180164
0.180311
0.180471
0.180645
0.180833
0.181035
0.181254
0.181489
0.181743
0.182018
0.182317
0.182645
0.183009
0.18342
0.183892
0.184452
0.185108
0.185911
0.186947
0.188369
0.190484
0.193206
0.196936
0.202656
0.214592
0.178804
0.178804
0.178805
0.178806
0.178808
0.178811
0.178813
0.178816
0.17882
0.178825
0.178831
0.178837
0.178846
0.178856
0.178868
0.178882
0.178898
0.178917
0.178938
0.178962
0.17899
0.179021
0.179057
0.179097
0.179142
0.179192
0.179248
0.179311
0.179382
0.179461
0.17955
0.179648
0.179755
0.179872
0.18
0.18014
0.180292
0.180458
0.180638
0.180833
0.181043
0.181269
0.181513
0.181775
0.182058
0.182365
0.182703
0.183076
0.183494
0.183973
0.184534
0.185187
0.185984
0.187008
0.188411
0.190487
0.193156
0.196832
0.202477
0.214287
0.178745
0.178745
0.178745
0.178746
0.178747
0.178749
0.178751
0.178754
0.178757
0.178761
0.178766
0.178772
0.17878
0.17879
0.178802
0.178816
0.178831
0.17885
0.178872
0.178896
0.178925
0.178957
0.178994
0.179035
0.179081
0.179133
0.179191
0.179256
0.17933
0.179412
0.179504
0.179605
0.179715
0.179836
0.179969
0.180114
0.180271
0.180442
0.180629
0.180831
0.181048
0.181282
0.181534
0.181806
0.182097
0.182414
0.182761
0.183144
0.183574
0.184066
0.184623
0.185275
0.18607
0.187094
0.188497
0.190512
0.193114
0.196732
0.202294
0.21401
0.178686
0.178686
0.178686
0.178686
0.178687
0.178688
0.178689
0.178691
0.178692
0.178695
0.1787
0.178706
0.178713
0.178722
0.178733
0.178746
0.178762
0.17878
0.178802
0.178828
0.178857
0.17889
0.178927
0.178969
0.179016
0.179069
0.179129
0.179197
0.179272
0.179357
0.179452
0.179557
0.179672
0.179797
0.179934
0.180085
0.180247
0.180425
0.180618
0.180827
0.181051
0.181293
0.181552
0.181832
0.182134
0.182461
0.182818
0.183211
0.183651
0.184149
0.184711
0.185365
0.186162
0.187199
0.188669
0.190547
0.193068
0.196629
0.202117
0.213765
0.178626
0.178626
0.178625
0.178625
0.178624
0.178625
0.178625
0.178626
0.178627
0.17863
0.178634
0.178639
0.178645
0.178653
0.178664
0.178676
0.178691
0.178709
0.178731
0.178756
0.178785
0.178818
0.178856
0.178899
0.178948
0.179003
0.179064
0.179133
0.179211
0.179299
0.179397
0.179505
0.179624
0.179754
0.179896
0.180051
0.18022
0.180403
0.180603
0.180819
0.18105
0.181299
0.181567
0.181856
0.182168
0.182505
0.182874
0.183281
0.183737
0.184237
0.184801
0.185456
0.186248
0.187268
0.188708
0.190539
0.193008
0.196526
0.201953
0.213553
0.178568
0.178568
0.178567
0.178565
0.178563
0.178561
0.178561
0.17856
0.17856
0.178562
0.178564
0.178569
0.178574
0.178582
0.178592
0.178604
0.178618
0.178635
0.178656
0.178681
0.17871
0.178743
0.178782
0.178826
0.178876
0.178932
0.178996
0.179067
0.179146
0.179236
0.179338
0.17945
0.179573
0.179707
0.179853
0.180014
0.18019
0.18038
0.180586
0.180809
0.181047
0.181304
0.181581
0.181878
0.1822
0.182548
0.182928
0.183346
0.183812
0.184323
0.184896
0.185555
0.186347
0.187355
0.188762
0.190541
0.192951
0.196419
0.201794
0.213377
0.178506
0.178506
0.178505
0.178503
0.1785
0.178497
0.178495
0.178493
0.178492
0.178493
0.178494
0.178497
0.178502
0.178509
0.178518
0.178529
0.178542
0.178559
0.178579
0.178603
0.178631
0.178665
0.178704
0.178749
0.178799
0.178856
0.178921
0.178994
0.179077
0.179169
0.179273
0.179388
0.179514
0.179652
0.179803
0.179969
0.180149
0.180346
0.18056
0.18079
0.181037
0.181303
0.18159
0.181897
0.182229
0.182589
0.182981
0.183412
0.18389
0.184412
0.184995
0.185664
0.186461
0.187464
0.188839
0.190559
0.192899
0.196309
0.201639
0.213255
0.178441
0.17844
0.178439
0.178437
0.178434
0.178432
0.178429
0.178426
0.178423
0.178421
0.178421
0.178422
0.178426
0.178431
0.178439
0.178449
0.178461
0.178478
0.178497
0.178521
0.178549
0.178583
0.178622
0.178667
0.178718
0.178776
0.178842
0.178917
0.179001
0.179096
0.179202
0.17932
0.179449
0.179591
0.179747
0.179919
0.180105
0.180308
0.180527
0.180764
0.18102
0.181295
0.181591
0.181911
0.182256
0.182628
0.183035
0.183482
0.183967
0.184501
0.185098
0.185782
0.186593
0.187604
0.18894
0.190596
0.192856
0.196198
0.201481
0.213138
0.178374
0.178373
0.178372
0.178369
0.178367
0.178364
0.17836
0.178356
0.178352
0.178349
0.178346
0.178346
0.178347
0.178351
0.178357
0.178365
0.178377
0.178393
0.178412
0.178435
0.178463
0.178497
0.178536
0.17858
0.178632
0.178691
0.178758
0.178834
0.17892
0.179016
0.179125
0.179244
0.179377
0.179522
0.179683
0.179859
0.180052
0.180261
0.180489
0.180734
0.180998
0.181282
0.181588
0.181916
0.182272
0.182657
0.183076
0.183537
0.184036
0.184585
0.185198
0.185901
0.186739
0.187801
0.189059
0.190647
0.192827
0.196083
0.201314
0.213019
0.178307
0.178306
0.178304
0.178301
0.178297
0.178293
0.178288
0.178284
0.178279
0.178274
0.17827
0.178268
0.178268
0.178269
0.178274
0.178281
0.178291
0.178305
0.178323
0.178346
0.178373
0.178406
0.178444
0.178489
0.17854
0.1786
0.178668
0.178745
0.178832
0.17893
0.179041
0.179163
0.179298
0.179448
0.179612
0.179791
0.179991
0.180208
0.180443
0.180696
0.180969
0.181261
0.181577
0.181916
0.182283
0.18268
0.183112
0.183587
0.184101
0.184665
0.185294
0.18601
0.186856
0.187913
0.189151
0.1907
0.192815
0.195981
0.201122
0.212802
0.17824
0.178238
0.178236
0.178233
0.178228
0.178223
0.178217
0.17821
0.178204
0.178198
0.178193
0.178188
0.178185
0.178185
0.178187
0.178193
0.178202
0.178214
0.178231
0.178252
0.178278
0.178309
0.178347
0.178391
0.178442
0.178502
0.17857
0.178648
0.178737
0.178836
0.178948
0.179073
0.179212
0.179364
0.179533
0.179718
0.179924
0.180147
0.18039
0.18065
0.180931
0.181233
0.181558
0.181909
0.182287
0.182696
0.183142
0.183631
0.184161
0.184742
0.185389
0.186125
0.186986
0.188036
0.189252
0.190765
0.192822
0.195901
0.200924
0.212426
0.17817
0.178169
0.178166
0.178162
0.178157
0.178151
0.178144
0.178136
0.178129
0.178122
0.178114
0.178108
0.178103
0.1781
0.1781
0.178103
0.178109
0.17812
0.178135
0.178154
0.178178
0.178208
0.178244
0.178287
0.178338
0.178397
0.178465
0.178543
0.178632
0.178733
0.178847
0.178974
0.179115
0.17927
0.179442
0.179633
0.179845
0.180075
0.180324
0.180592
0.180881
0.181193
0.18153
0.181891
0.18228
0.182702
0.183162
0.183666
0.184212
0.184812
0.18548
0.186242
0.187147
0.188166
0.18936
0.190844
0.192851
0.195844
0.200709
0.211825
0.178098
0.178097
0.178094
0.178089
0.178084
0.178077
0.17807
0.178061
0.178053
0.178043
0.178035
0.178026
0.178019
0.178014
0.178011
0.178011
0.178015
0.178023
0.178034
0.178052
0.178074
0.178103
0.178137
0.178179
0.178229
0.178287
0.178354
0.178432
0.178521
0.178622
0.178737
0.178865
0.179008
0.179166
0.179341
0.179537
0.179753
0.179988
0.180243
0.180519
0.180817
0.181137
0.181483
0.181855
0.182257
0.182692
0.183166
0.183686
0.184249
0.184865
0.18555
0.186328
0.187243
0.188268
0.189461
0.190931
0.192901
0.195815
0.200482
0.210965
0.178027
0.178025
0.178021
0.178016
0.178009
0.178002
0.177994
0.177984
0.177974
0.177963
0.177953
0.177943
0.177933
0.177925
0.177919
0.177917
0.177918
0.177923
0.177932
0.177946
0.177966
0.177992
0.178024
0.178063
0.178111
0.178167
0.178233
0.17831
0.178398
0.178499
0.178614
0.178743
0.178886
0.179045
0.179223
0.179421
0.179641
0.179881
0.180141
0.180423
0.180727
0.181056
0.181411
0.181794
0.182209
0.182658
0.183147
0.183683
0.184264
0.184899
0.185602
0.186397
0.187322
0.188355
0.189548
0.191006
0.192935
0.195748
0.200174
0.209908
0.177953
0.177951
0.177948
0.177942
0.177935
0.177926
0.177916
0.177905
0.177894
0.177881
0.177869
0.177856
0.177844
0.177834
0.177825
0.177819
0.177816
0.177818
0.177824
0.177834
0.177851
0.177873
0.177903
0.177939
0.177984
0.178038
0.178102
0.178177
0.178263
0.178363
0.178477
0.178605
0.178749
0.178908
0.179087
0.179286
0.179508
0.17975
0.180014
0.1803
0.180609
0.180945
0.181308
0.181701
0.182127
0.182589
0.183092
0.183644
0.184243
0.184898
0.18562
0.186432
0.187367
0.188405
0.189596
0.191033
0.192904
0.195592
0.199756
0.208757
0.177881
0.177879
0.177875
0.177869
0.177861
0.177851
0.17784
0.177828
0.177814
0.1778
0.177784
0.177769
0.177755
0.177742
0.17773
0.177721
0.177714
0.177712
0.177713
0.17772
0.177731
0.177749
0.177773
0.177805
0.177846
0.177896
0.177957
0.178029
0.178113
0.178212
0.178324
0.178451
0.178592
0.178751
0.178929
0.179127
0.179348
0.17959
0.179854
0.180142
0.180455
0.180794
0.181163
0.181565
0.181999
0.182472
0.182986
0.183549
0.184168
0.184845
0.185589
0.186419
0.187368
0.188417
0.189609
0.191027
0.19284
0.195397
0.199334
0.207608
0.177809
0.177806
0.177802
0.177795
0.177786
0.177775
0.177763
0.177748
0.177733
0.177716
0.177699
0.177681
0.177664
0.177647
0.177632
0.177619
0.177609
0.177602
0.177599
0.177601
0.177608
0.177622
0.177642
0.17767
0.177706
0.177751
0.177806
0.177873
0.177952
0.178045
0.178154
0.178276
0.178414
0.178569
0.178742
0.178936
0.179153
0.179392
0.179653
0.179939
0.18025
0.18059
0.18096
0.181364
0.181805
0.182286
0.182812
0.183391
0.184029
0.184729
0.185502
0.186363
0.187339
0.188417
0.189638
0.191075
0.192862
0.195263
0.198923
0.20659
0.177736
0.177733
0.177728
0.177721
0.177711
0.177699
0.177685
0.177669
0.177652
0.177633
0.177613
0.177593
0.177572
0.177552
0.177533
0.177517
0.177502
0.177491
0.177484
0.177481
0.177484
0.177493
0.177507
0.177529
0.17756
0.177599
0.177648
0.177709
0.177781
0.177867
0.177968
0.178083
0.178213
0.17836
0.178526
0.178712
0.178921
0.179151
0.179404
0.179683
0.179987
0.18032
0.180685
0.181085
0.181523
0.182005
0.182535
0.18312
0.183769
0.184491
0.185291
0.186186
0.187198
0.188325
0.189604
0.191105
0.192942
0.195305
0.198823
0.205731
0.177661
0.177659
0.177653
0.177645
0.177634
0.17762
0.177605
0.177588
0.177568
0.177547
0.177524
0.177501
0.177477
0.177454
0.177431
0.17741
0.17739
0.177374
0.177362
0.177354
0.177352
0.177355
0.177364
0.177379
0.177402
0.177434
0.177475
0.177527
0.17759
0.177666
0.177756
0.177859
0.177978
0.178112
0.178264
0.178434
0.178626
0.17884
0.179076
0.179336
0.179621
0.179934
0.180277
0.180653
0.181067
0.181522
0.182025
0.182582
0.183202
0.183895
0.184669
0.185533
0.186503
0.187599
0.188826
0.190226
0.191916
0.194025
0.197157
0.205307
0.177583
0.17758
0.177574
0.177565
0.177553
0.177537
0.177519
0.177499
0.177476
0.177452
0.177426
0.177399
0.177371
0.177344
0.177317
0.177291
0.177268
0.177248
0.177234
0.177224
0.177219
0.177221
0.177229
0.177245
0.177268
0.177301
0.177344
0.177399
0.177465
0.177546
0.177643
0.177756
0.177884
0.17803
0.178195
0.178381
0.178591
0.178823
0.179081
0.179363
0.179675
0.180017
0.180392
0.180806
0.181263
0.181768
0.182329
0.182954
0.183653
0.184437
0.185314
0.186307
0.187439
0.188697
0.190106
0.191707
0.193586
0.195951
0.199608
0.208826
0.177503
0.177499
0.177492
0.177481
0.177467
0.177449
0.177429
0.177405
0.177379
0.177351
0.177321
0.17729
0.177259
0.177227
0.177196
0.177166
0.177141
0.177119
0.177102
0.177091
0.177085
0.177086
0.177094
0.17711
0.177135
0.177169
0.177215
0.177274
0.177346
0.177434
0.17754
0.177663
0.177803
0.177963
0.178145
0.178351
0.178579
0.178832
0.179112
0.17942
0.17976
0.180133
0.180543
0.180994
0.181491
0.182042
0.182653
0.183335
0.184098
0.18495
0.185911
0.187008
0.188217
0.18955
0.191025
0.192678
0.194593
0.19695
0.20055
0.209534
0.177416
0.177412
0.177404
0.177392
0.177376
0.177356
0.177333
0.177306
0.177277
0.177246
0.177213
0.177177
0.177141
0.177105
0.177071
0.177039
0.177011
0.176987
0.176968
0.176955
0.176948
0.176948
0.176955
0.176971
0.176996
0.177032
0.177081
0.177142
0.177218
0.177312
0.177425
0.177556
0.177706
0.177877
0.178072
0.17829
0.178533
0.178802
0.179099
0.179426
0.179786
0.180182
0.180618
0.181099
0.181629
0.182217
0.182872
0.183603
0.184414
0.185317
0.186333
0.187494
0.188758
0.190138
0.191656
0.193359
0.195338
0.197769
0.201491
0.210401
0.177324
0.177319
0.17731
0.177297
0.177279
0.177256
0.17723
0.177201
0.177168
0.177134
0.177096
0.177058
0.177018
0.176978
0.176941
0.176907
0.176877
0.176852
0.176831
0.176815
0.176805
0.176804
0.176811
0.176826
0.17685
0.176886
0.176935
0.176999
0.177079
0.177177
0.177297
0.177435
0.177593
0.177774
0.177978
0.178208
0.178464
0.178746
0.179058
0.179401
0.179778
0.180194
0.180651
0.181154
0.181709
0.182324
0.183011
0.183773
0.184617
0.185552
0.186604
0.187804
0.189105
0.190522
0.192082
0.193835
0.195886
0.198437
0.20235
0.211336
0.177225
0.17722
0.17721
0.177195
0.177176
0.177152
0.177124
0.177093
0.177057
0.177019
0.176979
0.176936
0.176891
0.176848
0.176808
0.176772
0.176739
0.17671
0.176687
0.176669
0.176657
0.176653
0.176657
0.17667
0.176694
0.176729
0.176779
0.176844
0.176926
0.177028
0.177152
0.177296
0.177461
0.177648
0.177861
0.1781
0.178365
0.178658
0.178981
0.179335
0.179726
0.180156
0.180627
0.181148
0.181724
0.182364
0.183079
0.183872
0.184749
0.185718
0.186805
0.188042
0.189372
0.190815
0.192407
0.194212
0.196362
0.199115
0.203428
0.212941
0.177119
0.177113
0.177102
0.177086
0.177066
0.17704
0.177011
0.176977
0.176938
0.176897
0.176853
0.176805
0.176759
0.176715
0.176673
0.176634
0.176598
0.176566
0.176539
0.176518
0.176504
0.176496
0.176497
0.176508
0.176529
0.176565
0.176615
0.176681
0.176766
0.176871
0.176999
0.177146
0.177315
0.177508
0.177726
0.177971
0.178244
0.178546
0.17888
0.179245
0.179647
0.18009
0.180575
0.181112
0.181707
0.18237
0.183107
0.183925
0.184834
0.185838
0.186955
0.188211
0.189557
0.191021
0.192642
0.194492
0.196729
0.19971
0.204604
0.215402
0.177007
0.177002
0.17699
0.176973
0.17695
0.176923
0.17689
0.176853
0.176813
0.17677
0.176725
0.176678
0.176629
0.176582
0.176537
0.176493
0.176452
0.176417
0.176388
0.176363
0.176343
0.176331
0.176327
0.176334
0.176354
0.176389
0.17644
0.176508
0.176597
0.176705
0.176835
0.176985
0.177157
0.177351
0.177572
0.177822
0.178101
0.178411
0.178753
0.179128
0.17954
0.179993
0.180491
0.181042
0.181653
0.182335
0.183092
0.183933
0.184872
0.185954
0.187111
0.188356
0.189703
0.191178
0.192821
0.194712
0.197029
0.200259
0.205958
0.219357
0.176885
0.17688
0.176868
0.17685
0.176828
0.1768
0.176767
0.17673
0.17669
0.176646
0.176599
0.176549
0.1765
0.17645
0.176401
0.176355
0.176314
0.176277
0.176244
0.176215
0.176192
0.176177
0.176171
0.176176
0.176194
0.176228
0.176278
0.176346
0.176434
0.176541
0.176667
0.176816
0.176986
0.17718
0.177403
0.177657
0.177944
0.178262
0.178613
0.178997
0.179419
0.179881
0.180391
0.180958
0.181585
0.182279
0.183052
0.183913
0.18488
0.185981
0.187149
0.188402
0.18976
0.191247
0.192904
0.194801
0.197103
0.200259
0.205725
0.218642
0.176767
0.176762
0.17675
0.176731
0.176707
0.176678
0.176643
0.176604
0.176562
0.176515
0.176466
0.176415
0.176363
0.17631
0.176259
0.176211
0.176168
0.176128
0.176092
0.17606
0.176035
0.176017
0.17601
0.176014
0.176032
0.176066
0.176116
0.176185
0.176272
0.176381
0.176512
0.176664
0.176839
0.17704
0.177269
0.17753
0.177825
0.178152
0.178512
0.178907
0.179337
0.179807
0.18033
0.180908
0.181547
0.182252
0.183036
0.183913
0.184899
0.186008
0.18718
0.188437
0.189799
0.191297
0.19297
0.194885
0.197192
0.200298
0.205553
0.218027
0.176641
0.176636
0.176623
0.176604
0.176578
0.176547
0.176511
0.176471
0.176426
0.176377
0.176326
0.176272
0.176217
0.176162
0.17611
0.17606
0.176015
0.175972
0.175933
0.175899
0.175872
0.175853
0.175844
0.175846
0.175862
0.175896
0.175948
0.176017
0.176108
0.176219
0.176355
0.176512
0.176694
0.176902
0.177138
0.177408
0.177709
0.178045
0.178414
0.178817
0.179257
0.179738
0.180271
0.18086
0.181505
0.182223
0.18302
0.183918
0.184945
0.186035
0.187197
0.188453
0.189824
0.191337
0.19303
0.194965
0.197275
0.200338
0.20541
0.217439
0.176505
0.176499
0.176486
0.176467
0.176442
0.176411
0.176374
0.176332
0.176286
0.176235
0.176181
0.176124
0.176067
0.176009
0.175954
0.175902
0.175853
0.175807
0.175765
0.17573
0.175702
0.175681
0.175668
0.175669
0.175685
0.17572
0.175773
0.175845
0.175938
0.176054
0.176195
0.176359
0.176548
0.176764
0.177008
0.177283
0.177593
0.177935
0.178312
0.178724
0.179174
0.179665
0.180207
0.180802
0.181458
0.182184
0.182992
0.183901
0.184941
0.186035
0.187202
0.188462
0.189841
0.191368
0.193082
0.195044
0.197376
0.200414
0.205318
0.216903
0.176364
0.176356
0.176343
0.176323
0.176298
0.176266
0.176229
0.176184
0.176136
0.176083
0.176026
0.175967
0.175908
0.175848
0.175791
0.175735
0.175683
0.175633
0.175588
0.17555
0.175519
0.175496
0.175484
0.175486
0.175504
0.17554
0.175595
0.17567
0.175766
0.175885
0.176029
0.176199
0.176393
0.176617
0.176868
0.177153
0.177472
0.177824
0.17821
0.178632
0.17909
0.179592
0.180146
0.180751
0.181417
0.182153
0.182972
0.183893
0.184939
0.186036
0.187206
0.188471
0.189859
0.191403
0.193141
0.19513
0.197485
0.200508
0.205266
0.216413
0.17621
0.176204
0.176192
0.176172
0.176146
0.176113
0.176073
0.176028
0.175976
0.175921
0.175863
0.175804
0.175742
0.175679
0.175619
0.175561
0.175506
0.175453
0.175406
0.175365
0.175332
0.175308
0.175296
0.175298
0.175317
0.175355
0.175411
0.17549
0.175589
0.175712
0.17586
0.176035
0.176235
0.176465
0.176727
0.17702
0.177349
0.177712
0.178107
0.178541
0.17901
0.179522
0.180087
0.180703
0.181382
0.18213
0.182965
0.183901
0.18495
0.186049
0.18722
0.18849
0.189886
0.191444
0.193206
0.19523
0.197622
0.20065
0.20528
0.216
0.17605
0.176044
0.176032
0.176012
0.175985
0.175951
0.175909
0.175861
0.175808
0.175751
0.17569
0.175628
0.175564
0.1755
0.175437
0.175375
0.175317
0.175264
0.175215
0.175174
0.17514
0.175115
0.175102
0.175104
0.175124
0.175164
0.175224
0.175304
0.175406
0.175534
0.175687
0.175868
0.176076
0.176314
0.176586
0.176891
0.17723
0.177603
0.178009
0.178455
0.178935
0.179461
0.180038
0.180666
0.181358
0.182121
0.182979
0.183957
0.184986
0.186079
0.18725
0.188525
0.189932
0.191507
0.193296
0.195357
0.19779
0.200833
0.20536
0.215667
0.175882
0.175875
0.175861
0.17584
0.175811
0.175777
0.175734
0.175686
0.175632
0.175574
0.17551
0.175445
0.175378
0.175312
0.175245
0.175182
0.175121
0.175065
0.175016
0.174974
0.174939
0.174914
0.174901
0.174904
0.174925
0.174967
0.17503
0.175114
0.175222
0.175356
0.175514
0.1757
0.175914
0.176165
0.176447
0.176764
0.177114
0.177498
0.177917
0.178372
0.178866
0.179406
0.179996
0.180639
0.181344
0.182123
0.182993
0.183985
0.185025
0.186125
0.187306
0.188591
0.19001
0.191603
0.193418
0.19552
0.198008
0.201093
0.205544
0.215449
0.175707
0.175699
0.175682
0.175659
0.17563
0.175595
0.175553
0.175504
0.175449
0.175389
0.175324
0.175256
0.175187
0.175119
0.17505
0.174982
0.174919
0.174861
0.174812
0.174768
0.174733
0.174709
0.174697
0.174699
0.174721
0.174767
0.174834
0.174922
0.175034
0.175172
0.175338
0.175531
0.175755
0.176017
0.176314
0.176644
0.177008
0.177405
0.177838
0.178309
0.178814
0.179368
0.179975
0.180636
0.181357
0.18215
0.183037
0.184046
0.185097
0.186208
0.1874
0.188699
0.190138
0.191755
0.193603
0.195754
0.198307
0.201452
0.205859
0.215394
0.175522
0.175514
0.175499
0.175476
0.175445
0.175408
0.175365
0.175313
0.175257
0.175195
0.175128
0.175059
0.174988
0.174918
0.174846
0.174777
0.174712
0.174652
0.174601
0.174556
0.174521
0.174497
0.174485
0.174491
0.174516
0.174565
0.174636
0.174729
0.174847
0.174991
0.175162
0.175361
0.1756
0.175876
0.176187
0.17653
0.176908
0.17732
0.177771
0.178256
0.178778
0.17935
0.179973
0.180653
0.181397
0.182216
0.183132
0.184156
0.18522
0.186343
0.187552
0.188874
0.190339
0.19199
0.193881
0.196091
0.198726
0.201967
0.206381
0.215597
0.175336
0.175327
0.17531
0.175286
0.175254
0.175215
0.17517
0.175116
0.175056
0.174992
0.174924
0.174855
0.174782
0.17471
0.174635
0.174563
0.174495
0.174431
0.174377
0.174334
0.174302
0.17428
0.174272
0.174279
0.174309
0.174362
0.174436
0.174536
0.174661
0.174811
0.174989
0.1752
0.175452
0.175741
0.176065
0.176422
0.176815
0.177243
0.177709
0.178214
0.17876
0.179356
0.180001
0.180705
0.181478
0.182334
0.183309
0.184326
0.185397
0.18654
0.187777
0.189134
0.190645
0.192351
0.194309
0.196601
0.199353
0.20275
0.207272
0.216288
0.175142
0.175133
0.175116
0.17509
0.175059
0.17502
0.174972
0.174916
0.174855
0.174789
0.17472
0.174645
0.17457
0.174493
0.174417
0.174342
0.174272
0.174206
0.174151
0.174108
0.174076
0.174056
0.17405
0.17406
0.174092
0.174151
0.174231
0.174337
0.174468
0.174626
0.174812
0.175041
0.175308
0.175614
0.175954
0.176328
0.176739
0.177187
0.177672
0.178201
0.178771
0.179391
0.180063
0.180798
0.181604
0.182498
0.1835
0.18454
0.185638
0.186814
0.188094
0.189506
0.191086
0.192877
0.194937
0.197356
0.200281
0.203931
0.20878
0.217897
0.17494
0.174931
0.174914
0.174889
0.174857
0.174816
0.174767
0.17471
0.174647
0.174578
0.174507
0.174431
0.174351
0.174271
0.174192
0.174115
0.174042
0.173975
0.173919
0.173875
0.173844
0.173826
0.173822
0.173838
0.173874
0.173939
0.174026
0.174138
0.174275
0.174438
0.174644
0.17489
0.175177
0.175497
0.175855
0.17625
0.176682
0.177153
0.177665
0.178222
0.178824
0.179474
0.18018
0.180951
0.181806
0.182772
0.183787
0.184856
0.185993
0.187222
0.188572
0.190075
0.191769
0.193704
0.195947
0.198598
0.201826
0.205942
0.211711
0.221615
0.174721
0.174712
0.174694
0.174668
0.174635
0.174595
0.174548
0.174493
0.174429
0.174358
0.174285
0.174208
0.174129
0.17405
0.173969
0.17389
0.173814
0.173742
0.17368
0.17363
0.173595
0.173575
0.173568
0.173581
0.173611
0.173668
0.173745
0.173848
0.173974
0.174126
0.17432
0.174551
0.17482
0.175128
0.175472
0.175853
0.176273
0.176728
0.177222
0.17776
0.178336
0.178955
0.179627
0.180354
0.181149
0.182032
0.183027
0.184059
0.185145
0.186314
0.187591
0.189012
0.190617
0.192456
0.194597
0.197146
0.200274
0.204307
0.209978
0.219663
0.174494
0.174485
0.174469
0.174445
0.174412
0.174373
0.174323
0.174267
0.174204
0.174136
0.174064
0.173984
0.173903
0.173822
0.173739
0.173658
0.17358
0.173506
0.17344
0.173386
0.173345
0.17332
0.17331
0.173316
0.17334
0.173386
0.173459
0.173553
0.173667
0.173807
0.173984
0.174198
0.174449
0.17474
0.175069
0.175438
0.175845
0.176285
0.17676
0.177277
0.177832
0.178428
0.17907
0.179765
0.180523
0.181358
0.182303
0.183297
0.184342
0.185457
0.186669
0.188013
0.189529
0.191269
0.193302
0.195736
0.198747
0.202666
0.208304
0.218473
0.174267
0.174256
0.17424
0.174216
0.174183
0.174143
0.174094
0.174039
0.173976
0.173907
0.173834
0.173756
0.173674
0.173591
0.173507
0.173422
0.173342
0.173268
0.173198
0.173138
0.173094
0.173067
0.173054
0.173055
0.173073
0.173112
0.173178
0.173264
0.173368
0.173505
0.173675
0.173878
0.174117
0.174396
0.174708
0.175059
0.175448
0.175879
0.176342
0.176842
0.177385
0.177964
0.178588
0.179262
0.179992
0.180786
0.181671
0.182669
0.183698
0.184787
0.185968
0.187274
0.188747
0.190439
0.192421
0.194802
0.197762
0.201647
0.2073
0.217603
0.17403
0.174022
0.174006
0.173984
0.17395
0.173908
0.173859
0.173804
0.173741
0.173673
0.173599
0.173522
0.173442
0.173357
0.173271
0.173185
0.173102
0.173023
0.172952
0.172891
0.172844
0.172811
0.172798
0.172798
0.172811
0.172844
0.172901
0.172985
0.173085
0.173219
0.173382
0.173576
0.173806
0.174075
0.174377
0.174714
0.175089
0.175501
0.175956
0.176449
0.176978
0.177548
0.178159
0.178816
0.179523
0.180296
0.181155
0.182129
0.183134
0.184199
0.185353
0.186629
0.188067
0.189718
0.191653
0.193981
0.196883
0.200715
0.206348
0.216851
0.173788
0.173782
0.173766
0.173742
0.17371
0.173668
0.173621
0.173565
0.173506
0.173439
0.173365
0.173287
0.173205
0.17312
0.173034
0.172947
0.172862
0.172783
0.172713
0.17265
0.172599
0.172563
0.172546
0.17254
0.172551
0.172581
0.172634
0.172714
0.172809
0.172938
0.173094
0.173284
0.173509
0.173772
0.174067
0.174397
0.174763
0.175162
0.175602
0.176088
0.176614
0.177174
0.177774
0.178415
0.179108
0.179864
0.180705
0.181663
0.182652
0.183704
0.184843
0.186103
0.187521
0.189151
0.191063
0.193364
0.196238
0.200044
0.205675
0.216234
0.173549
0.173541
0.173525
0.173503
0.173468
0.173426
0.173377
0.173324
0.173263
0.173197
0.173124
0.173045
0.172962
0.172876
0.172787
0.172701
0.17262
0.172543
0.172472
0.172408
0.172355
0.172312
0.172285
0.172281
0.172292
0.172319
0.172369
0.172446
0.172539
0.172664
0.172819
0.173004
0.173223
0.17348
0.173771
0.174097
0.174458
0.174851
0.17528
0.175752
0.176276
0.176829
0.17742
0.178051
0.178728
0.179469
0.180294
0.181234
0.182213
0.183255
0.184384
0.18563
0.187033
0.188643
0.190532
0.192806
0.195648
0.19942
0.205025
0.215666
0.173311
0.1733
0.173283
0.173256
0.173223
0.173181
0.173133
0.173079
0.173016
0.17295
0.172877
0.172797
0.172714
0.172628
0.172542
0.172461
0.172382
0.172303
0.17223
0.172166
0.172108
0.172062
0.172032
0.172024
0.172034
0.17206
0.172107
0.172181
0.172275
0.172398
0.17255
0.172734
0.17295
0.173202
0.17349
0.173812
0.174169
0.174558
0.174984
0.17545
0.175967
0.176511
0.177094
0.177718
0.178389
0.179116
0.179923
0.180841
0.181816
0.182854
0.183978
0.185218
0.186613
0.188214
0.190091
0.192351
0.195175
0.198927
0.204517
0.215168
0.173063
0.173054
0.173036
0.17301
0.172975
0.172935
0.172887
0.172834
0.172771
0.172704
0.172628
0.172547
0.172463
0.172382
0.172299
0.172217
0.172138
0.172058
0.171984
0.171916
0.171856
0.171808
0.171774
0.171759
0.171774
0.171801
0.171846
0.171913
0.172009
0.172134
0.172287
0.17247
0.172683
0.17293
0.173218
0.173539
0.173893
0.174279
0.174703
0.175165
0.175676
0.176216
0.176794
0.177411
0.178073
0.178787
0.179573
0.180454
0.181445
0.182485
0.183605
0.184839
0.186228
0.18782
0.189687
0.191933
0.194738
0.198466
0.204026
0.214691
0.172814
0.172807
0.17279
0.172765
0.17273
0.172689
0.172641
0.172587
0.172524
0.172457
0.17238
0.172303
0.172222
0.172139
0.172056
0.171975
0.171893
0.171812
0.171735
0.171665
0.171604
0.171551
0.171515
0.171499
0.17151
0.171539
0.171586
0.171655
0.171753
0.17188
0.172031
0.172211
0.172423
0.172669
0.172957
0.173277
0.173629
0.174015
0.174438
0.174905
0.175406
0.175944
0.176515
0.177125
0.177781
0.178488
0.179258
0.180121
0.181113
0.182147
0.183262
0.184494
0.185881
0.187471
0.189333
0.191571
0.194366
0.198078
0.203613
0.214252
0.172572
0.172562
0.172544
0.172519
0.172484
0.172443
0.172394
0.172338
0.172274
0.172206
0.172133
0.172057
0.171978
0.171897
0.171814
0.17173
0.171646
0.171565
0.171486
0.171413
0.171347
0.171295
0.171258
0.171236
0.171241
0.171277
0.171328
0.171401
0.171501
0.171627
0.171778
0.171956
0.172168
0.172416
0.172704
0.173023
0.173373
0.173759
0.174182
0.174646
0.175146
0.175681
0.176248
0.176855
0.177504
0.178204
0.178968
0.179821
0.180799
0.181826
0.182938
0.184169
0.185556
0.187145
0.189002
0.191234
0.194019
0.197713
0.203216
0.213819
0.17233
0.172319
0.172302
0.172277
0.172243
0.172199
0.172148
0.172091
0.172031
0.171964
0.171893
0.171818
0.171738
0.171658
0.171573
0.171486
0.171401
0.171317
0.171237
0.171162
0.171097
0.171041
0.171003
0.170981
0.170985
0.171022
0.171073
0.171147
0.171244
0.171371
0.171523
0.171704
0.171917
0.172167
0.172453
0.17277
0.173121
0.173507
0.173929
0.174393
0.174893
0.175426
0.175991
0.176597
0.177245
0.17794
0.178697
0.179538
0.180502
0.181519
0.182627
0.183863
0.185254
0.186844
0.1887
0.190929
0.19371
0.197393
0.202865
0.213399
0.172088
0.172078
0.172057
0.172031
0.172001
0.171961
0.171912
0.171858
0.171797
0.171729
0.171656
0.171579
0.171499
0.171414
0.171328
0.171241
0.171153
0.171069
0.170986
0.170909
0.170842
0.170786
0.170746
0.170726
0.17073
0.170767
0.170821
0.170895
0.170993
0.171118
0.171271
0.171454
0.171668
0.171916
0.172203
0.172521
0.172876
0.173262
0.173688
0.17415
0.174649
0.175179
0.175744
0.176348
0.176997
0.17769
0.178438
0.179265
0.180211
0.181217
0.182324
0.183569
0.184968
0.186559
0.188414
0.190639
0.193419
0.197093
0.202531
0.21297
0.171849
0.171841
0.171824
0.171801
0.17177
0.17173
0.171682
0.171627
0.171564
0.171496
0.171423
0.171343
0.171261
0.171175
0.171086
0.170996
0.170907
0.170819
0.170735
0.170657
0.170589
0.170535
0.170495
0.170473
0.170475
0.170504
0.170567
0.170645
0.170746
0.170873
0.171025
0.171211
0.171424
0.171672
0.171957
0.172276
0.172631
0.17302
0.173449
0.173915
0.174414
0.174946
0.175513
0.176116
0.176764
0.17745
0.178192
0.179003
0.179924
0.180915
0.182024
0.18329
0.184698
0.18629
0.188142
0.190366
0.19315
0.196821
0.202229
0.212527
0.171624
0.171616
0.171599
0.171576
0.171543
0.171503
0.171454
0.171398
0.171335
0.171264
0.171189
0.171108
0.171023
0.170934
0.170842
0.17075
0.17066
0.170572
0.170489
0.170411
0.170345
0.170291
0.170252
0.17023
0.170232
0.170259
0.170321
0.170399
0.170499
0.170626
0.170776
0.170967
0.171188