/*--------------------------------*- C++ -*----------------------------------*\
| =========                 |                                                 |
| \\      /  F ield         | OpenFOAM: The Open Source CFD Toolbox           |
|  \\    /   O peration     | Version:  v1906                                 |
|   \\  /    A nd           | Web:      www.OpenFOAM.com                      |
|    \\/     M anipulation  |                                                 |
\*---------------------------------------------------------------------------*/
FoamFile
{
    version     2.0;
    format      ascii;
    class       volScalarField;
    location    "2.83";
    object      rhoEffLagrangian;
}
// * * * * * * * * * * * * * * * * * * * * * * * * * * * * * * * * * * * * * //

dimensions      [1 -3 0 0 0 0 0];


internalField   nonuniform List<scalar> 
26400
(
0.000195893
0.000293691
0.000301115
0
0.000585153
0.000294979
0.000200314
0.000100801
0.00019897
0.000586236
0.000195514
0.000395986
9.95132e-05
9.95132e-05
0.000196802
0.000297602
9.60008e-05
0.000196802
0.000393603
0.000388803
9.60008e-05
0
0.000192002
0.000292472
0
0.000296086
9.58394e-05
0.000100631
0.000297102
9.58394e-05
0.000100828
0.000196471
0.00029231
0.000100828
0.000100828
0.000396741
0.000196471
0.000297102
0
0
0
0.000196471
0
0
0
0
0
0
0
0
0
0
0
0
0
0
0
0
0
0
0.000296156
0.000395772
0.000397116
0.000493829
0.000100801
0.000200314
0.000598255
0.000200314
0.000200258
0.000195458
0.000301115
0.000295027
0.000200314
0.000100801
0.000100801
0
9.60008e-05
0
0.000297602
0.000302402
0.000196802
0.000100801
0.000291616
0.000200416
9.96149e-05
0
0.000287518
0
0
0
0.000290738
0.000297299
0
0.000191866
0.000192053
0
0
0.000392942
0.000201263
0.000201263
0
0
0
0.000201305
0
0
0
9.59139e-05
0.00010071
0
0
0
0
0
0
0
0
0
0
0
0.000200258
9.60008e-05
0.000201973
0.000490373
0
0.000393306
0.000293898
0.000299668
0.00019897
0.000392687
0.000195514
0
9.60008e-05
0.00039593
0.000392314
0.000295027
0.000199218
0.000296416
0.000302402
0.000100801
0.000196802
0.000100801
0
0.000100801
0.000291503
0.000192002
0.000100631
0.000100631
0.000196471
9.58394e-05
0.000196658
0.000100631
0.000100631
0
0
0.000196658
0.000300518
0.000297102
0.000100631
9.58394e-05
0.000100631
0.000196471
0.000196512
0.000100653
9.58596e-05
9.48713e-05
0
0
0
0
0
0
0
0
0
0
0
0
0
0
9.95132e-05
0
0.000100801
0.000100698
0.000294915
0.00039433
0.000394489
0.00048698
9.60008e-05
0.000286678
0.000298484
9.9457e-05
0.000196802
0.000301012
9.59028e-05
0.000302402
0.000190775
0.000291616
0
0.000196802
0
0.000398403
0.000100801
0.000200416
0.00019664
0
0.000200246
9.58394e-05
0.000201263
0.000201263
0
0
0.000292694
0.000201459
0.000297682
0.000100828
0.000196667
0.000100631
0
0.000201263
0
0
9.58394e-05
0.000201284
0
0
9.48713e-05
0
0
0
0
0
0
0
0
0
0
0
0
0
0.000298427
0.000299771
0.000293689
0.000397884
0.000189592
0.000299715
0.000294805
0.000392694
9.9457e-05
0.000195514
0.000485656
9.9457e-05
0
0.000200404
0.000296315
0.000301115
9.59028e-05
0
0.000392314
0.000100801
0.000201602
9.60008e-05
0.000297602
0.000201602
0.000201432
0.000201432
0.000392304
9.60266e-05
0.000196471
0.000201263
0.000297299
0.000100631
0.000196667
0.000292685
0
0.000302091
0.000100631
0
0.000196471
0
0.000100631
0.000100631
0.000196512
0.000301936
0
0.000100653
0
9.59139e-05
0
0
0
0
0
0
0
0
0
0
0
0
0.000394428
0.000593177
0.00019897
0.000200258
0.000298371
0.000291459
0.000489213
0.00049673
9.4721e-05
9.47745e-05
0.000100698
0.00019897
0
0.000299827
0.000195472
0
0
0
0.000201602
0.000196802
0.000297602
0.000393603
0.000100801
0.000200416
0
0
0.000300031
0
0.000100631
0.000297102
0.000201263
0.000196855
0.000488968
0
9.60266e-05
0.000393709
0
0.000100828
0.000100631
9.58394e-05
0.000100631
0.000201263
0.000191679
0
9.58596e-05
0.000196512
0
0
0
0
0
0
0
0
0
0
0
0
0
0
0.000393148
0.000291523
0.000190872
9.9457e-05
0.000196802
0.000391028
0.00019897
0.000298585
0.000294805
9.9457e-05
0.000394465
0.000596401
0.000394544
9.60008e-05
0.000200314
0.000196704
0.000100801
9.95132e-05
0.000100698
0.000292802
0.000192002
0.000576005
0
0
0.000200416
0.000302402
0.00019923
0
0.000100631
0
0.000196658
9.60266e-05
0.000100828
9.60266e-05
0.000302091
0.000396554
9.58394e-05
0
0
9.58394e-05
9.58394e-05
0
9.58394e-05
0
0.000191719
0
0
0
0.00010071
0
0
0
0
0
0
0
0
0
0
0
9.96149e-05
0.000493829
0.000298585
0.000298484
9.95132e-05
0.000294971
0.000498685
0.000397941
0.000194288
0.000300198
0.000298427
0.00019897
9.60008e-05
0.000301012
0.0003023
0.000200211
0.000295027
9.95132e-05
0
9.60008e-05
0.000288002
0
0
0.000196802
9.60008e-05
0.000201602
0.000688511
0.000200246
0
0.000100631
9.58394e-05
0.00029231
0.000493769
0.000297486
0.000191866
9.60266e-05
0.000398323
0.000292507
0.000100631
0.000392942
0
9.58394e-05
9.58394e-05
0.000100653
0
0
0
0
0.00010071
0
0
0
0
0
0
0
0
0
0
0
9.9457e-05
0.000398144
0.000393614
0.000195616
9.96149e-05
0.000393306
0.000298371
9.47745e-05
0
0.000298484
0.000200313
0.000301059
9.95132e-05
0.000593808
0.00019897
0.000395827
0.000301114
0.000200314
9.47745e-05
0.000196699
0
0.000297602
0.000201602
0.000393603
0
0.000196802
0
0.000196632
9.96149e-05
0.000100631
0.000297102
0.000100631
0.000196471
0.000391369
0
0
0
0.000100828
0.000196471
0.000297102
9.58394e-05
0.000196471
0.00029233
0.000100631
9.58394e-05
0
0
0
9.59139e-05
0
0
0
0
0
0
0
0
0
0
0
0.000194234
0.000293785
0.000299612
9.9457e-05
9.9457e-05
0.000289207
0.000397884
0.000784025
0.000393146
0
0.000397997
9.60008e-05
0.000100801
0.000295027
0.000397116
9.60008e-05
0.000200314
0.00039573
0
0.000200314
0
0
0.000201602
0.000192002
9.48713e-05
0
9.60008e-05
0.000296255
0.000100631
0.00038815
9.58394e-05
0.000201263
0.000196658
0.000292694
0.000191679
0.000403312
9.9059e-05
0.000100828
0
0.000100631
0
0.000100631
0
9.58596e-05
0.000196491
9.58596e-05
0.000196512
0.00010071
0
0
0
0
0
0
0
0
0
0
0
0
0.000200211
0.000195514
9.9457e-05
0.000101172
0.000499112
9.96149e-05
0.000489299
0.000298427
9.60008e-05
0.000200155
0.000198914
0.000198914
9.95132e-05
0.000196802
0.000100801
0
9.4721e-05
0.000196699
0.000192002
0.000201602
0.000201602
9.60008e-05
0.000398403
0.000297602
9.60008e-05
0.000297602
9.60008e-05
9.58394e-05
0.000100801
0.000196471
0.000100631
0.000100631
0
0
9.58394e-05
0
0.000192053
0
0
0.000100631
0.000191679
0
0.000287518
0
0
9.58596e-05
9.58596e-05
9.58596e-05
0
0
0
0
0
0
0
0
0
0
0
0
9.9457e-05
0.000197075
0.000399389
0.000194328
0.00019923
0.000199072
9.9457e-05
0
0.000495173
0.000393092
0.000298427
9.9457e-05
0.000389794
0.000301059
0.000196692
9.60008e-05
9.95132e-05
0.000196704
0.000199026
0.000200314
9.60008e-05
0.000195616
0.000297602
0.000100801
0
0.000302402
0.000393603
0.000302402
0.000396717
0.000191679
0.000100631
0.000297102
9.58394e-05
0.000297102
0.000196471
0
0.000201459
0.000100631
0.000297299
0.000100828
9.58394e-05
0
9.58394e-05
0
0
9.58596e-05
0
0
0
0
9.58394e-05
0
0
0
0
0
0
0
0
0
0.000300956
0.000100801
0.000298484
0.000490493
0.000198914
0.000388567
0.000298845
9.9457e-05
0.000398042
0.000194178
0.000493829
0
0
0.000298427
0.000100801
0.00019897
0.000200258
9.9457e-05
0.000296315
9.96149e-05
0
9.60008e-05
0.000291673
0
0.000100801
9.60008e-05
0.000302402
0.000190872
0.000296255
0.000195454
9.58394e-05
0.000196471
0.000201263
0
0.000402722
9.60266e-05
0.000297682
0
0.000302484
9.58394e-05
0.000191679
0.000100631
0
9.58394e-05
0
0
9.58596e-05
0
0
0
0
0
0
0
0
0
0
0
0
0
0.000295027
0.000288953
0.000299774
0.000394495
0.000497601
0.000394709
0.000199072
0.000194486
0.000198914
0.000497285
0.000200211
9.9457e-05
0.000100801
0.000200314
9.9457e-05
9.9457e-05
9.4721e-05
9.9457e-05
0.000292704
0.000296216
0.000192002
9.96149e-05
9.48713e-05
0.000100801
0.000100801
0.000196802
0
0.000100801
0
0
9.48713e-05
0
0.000201263
0.000100631
0
0.000201459
0.000196855
9.60266e-05
0.000100631
0
0
0
0.000392942
0
9.58596e-05
0
0
0
0
0
0
0
0
0
0
0
0
0
0
0
0.000289057
0.00040069
0.000199072
0.000200341
0.000194232
0.000497657
0.00048802
0.00019897
0.000489465
0.000298529
0.000488182
9.9457e-05
0.000195458
0.000301115
9.4721e-05
0.000299771
0.000200258
0.00019897
0
9.95132e-05
0.000100801
0.00040171
9.60008e-05
0.000196802
0.000201602
0.000100801
0.000192002
0.000297602
0.000398403
0.000100631
9.96149e-05
0.00029231
0
9.58394e-05
0.000397734
0.000302091
0.000301894
0.000100828
0.000196855
0.000201459
0.000194898
0.000196471
0.000196471
0.000196471
0
0
0
0
0
0
0
0
0
0
0
0
0
0
0
0
0.000498801
0.000301201
0.000190778
9.96149e-05
9.4721e-05
0.000299932
0.000399284
0
0.000582644
0
0.000497443
0.000590008
9.4721e-05
0.000298371
9.9457e-05
9.9457e-05
0.000591228
0.000100801
9.60008e-05
0.000293075
0.000192002
0.00039454
0.000287806
0
0
0.000100801
0.000100801
0.000287841
0.000100801
0
0
0.000291294
9.58394e-05
0.000201263
0.000100631
0.000201263
0
0.000100828
9.9059e-05
0.000196855
0
0.000100631
0.000100631
0
0
0
0
0
0
0
0
0
0
0
0
0
0
0
0
0
9.9457e-05
0.000198914
0
0.000598359
0.000192114
0
0.000194328
0.000199128
0.00039325
0.000190624
0.000388356
0.000298585
0.00019897
9.9457e-05
9.9457e-05
0.00019897
0
0.000195458
0.00019897
9.60008e-05
9.59028e-05
0.000199026
0.0003983
0.000199128
0.000296307
0.000201602
0.000201602
0.000201602
0
9.96149e-05
0.000196632
9.96149e-05
0.000196471
0.000201263
0
0.000292694
9.58394e-05
0.000100828
0.000195086
0.000201656
0
0.000191679
0.000201263
0
0
0
0
0
9.58596e-05
0
0
0
0
0
0
0
0
0
0
0
0.000200317
0.000199128
0.000196917
0.000295027
0.000288899
0.000392502
0.000387541
0.000288953
0.0004893
0.000399701
9.9457e-05
9.9457e-05
0.00019897
0.000494422
0.000293943
0.00029124
0
0.000200258
0.00019897
0.000191904
0.000194389
9.95132e-05
0
0
9.60008e-05
0.000196802
0.000196802
0.000201602
0.000196802
0.000196802
0.000100801
9.60008e-05
9.58394e-05
0.000100631
0.000191679
0.000297102
9.58394e-05
0.000201263
0.000100631
0.000196855
0
0
0
0.00029231
0
0.00038815
0
0
0
0.00010071
0.00010071
0
0
0
0
0
0
0
0
0
0.000199128
9.66805e-05
0.00039325
0.000198821
0.000194234
0.000194328
0.000592337
0.000200317
0.000295129
0.000388412
0.000199072
0.000587326
9.96149e-05
0.000293635
0.000293635
0.000298371
0.000198914
0.000488129
0.000195458
0
0.000194234
0
0.00049167
0.000199026
0.000100801
0
9.60008e-05
0.000201602
0.000100801
0.000100801
0.000201602
0.000196802
0.000295231
0.000200246
9.58394e-05
0.00029231
0.000100828
0.000196471
0.000100631
0.000198118
0.000100828
9.9059e-05
0.000100631
0
0.000100631
0
0
0
0
0
0.00010071
0
0
0
0
0
0
0
0
0
0.000194036
0.000394186
0.000196295
9.93077e-05
0.000189442
0.000397837
0.000295129
0.000198914
0.000300142
9.9457e-05
0.00049092
0.000393148
0.000199072
9.9457e-05
0.000298427
0.000199128
0.000200258
9.95132e-05
0.000397884
0
0.000290232
0.00040031
0.000194288
0
0.000199026
9.95132e-05
0
0.000100801
0.000100801
0.000100801
0.000201602
9.60008e-05
0
0
9.58394e-05
0.000196471
0.00029231
0.000196471
0
0.000398127
0.000196855
0
0
0.000100631
0
0
0
0
0
0
0
0
0
0
0
0
0
0
0
0
0.000273949
0.000181635
0.000366962
0.000549056
9.18843e-05
0
0.000276798
0.00018069
0.000358217
0.000358269
0.000179123
0.000179254
9.18843e-05
0.000270897
8.85506e-05
9.18843e-05
0.000275216
9.28832e-05
0.000270847
9.17905e-05
0.000184622
0.000363927
0.000273172
0.000180289
0
8.84498e-05
8.74195e-05
0.000181529
0.000274507
0.000367485
0
9.29781e-05
0.000181224
0.000273309
0.000180331
0
0.000278466
0.000176804
0
8.84018e-05
0.000181578
0.000270152
0
0
0
0.000181224
8.84018e-05
0
9.28218e-05
0
0
0
0
0
0
0
0
0
0
0.000821297
8.74717e-05
0
0.000262693
0.000444071
0.00051823
0
0
0.000691501
0.000170778
0.000437235
0.000174993
0.000516827
0.000349887
8.74717e-05
0.000170828
0.000170828
0.000263923
0
0.000174993
0.000174943
0
0.000176452
0
8.89798e-05
0.000262653
8.85631e-05
0.000176174
8.86535e-05
0
8.86535e-05
0.000173086
0.000257376
0.000172944
0.000263726
0.000261299
0
0.000434094
8.44547e-05
0.000345589
0.000172959
8.44547e-05
0.000261645
8.86774e-05
0.000177009
0.000177009
8.85046e-05
0
0
0
8.85232e-05
0
0
0
0
0
0
0
0
0
0.000687679
0.000250515
0.000248551
0.000584672
8.35841e-05
0.000167348
0.000497974
0.000496626
0.000251939
0.000247832
0.000250885
0.000246905
0.00016549
0.000330403
0.000252241
0.000334469
0
0.000168297
0
0.000246772
0.000246772
8.35841e-05
0.000247848
0.000250847
0
8.36313e-05
8.36313e-05
8.46269e-05
8.37071e-05
8.06794e-05
0
0
0.000411187
0
0.000169142
8.4571e-05
0.000241631
0.000410774
8.4571e-05
0
8.07011e-05
0.000169472
0.000167986
8.4571e-05
8.05438e-05
0
8.05438e-05
0
0
0
0
0
0
0
0
0
0
0
0
0
0.000245514
0
0.000321492
0.000157373
0.000237648
0.000161184
0.000241462
0.000315267
0.000315648
0.000236031
0.000161184
0.00047786
0.000313787
7.63375e-05
0
0.000237267
0.00016148
0.000240209
0
8.00273e-05
8.00273e-05
0.000236316
7.62596e-05
0.000157319
8.00726e-05
0
8.00726e-05
0.000315677
0.000158355
0.000158355
0.000239463
8.11086e-05
0.000162217
0.000154233
0.000315619
8.09722e-05
0.000308466
8.09722e-05
7.7267e-05
0
8.11304e-05
7.7267e-05
8.09722e-05
7.71164e-05
0.000161944
8.09722e-05
8.09722e-05
0
7.71327e-05
0
7.71327e-05
0
0
0
0
0
0
0
0
0
0.000559843
0.000453714
0.000149236
0.000302283
0.000454613
0.000451473
7.66643e-05
7.46179e-05
7.66456e-05
0.000155232
0.000309714
7.83488e-05
7.78438e-05
0.000307165
0.000231487
0.000384213
0.000153644
0.000299733
0.000230326
0.000226714
7.67609e-05
0
7.68043e-05
0.000228696
0.000378559
7.68739e-05
7.68043e-05
0.000150898
0.000228774
0.000225985
0.000151891
0.000151891
0.000385285
0.000232479
0.000230648
0
0
0.000303272
7.76673e-05
0.000151636
7.41133e-05
7.41133e-05
0.000154121
0.000150423
0.000151636
0.000151636
0
7.76673e-05
0
0
0
0
0
0
0
0
0
0
0
0
0.000526832
0.000285686
0.000217023
0.000285241
0.000432989
0.000294218
0.000224193
0.000143989
0.000582635
7.16918e-05
0.000148431
0.000432959
0.000438208
0.000443544
0.000221141
0.000143989
0.000145097
0.000147501
7.50222e-05
7.37924e-05
0.000143989
7.37507e-05
7.37507e-05
0.000221294
0.000147501
7.02387e-05
7.11877e-05
0.000147585
0.000142375
7.11877e-05
0
0.000224241
0.000298863
0.000216124
7.46215e-05
0
0.000369554
0.000294933
0.000145828
0.000295363
0
0
0.000298923
0
0.00014569
0
7.46215e-05
0
7.46372e-05
0
0
0
0
0
0
0
0
0
0
0
0.000217165
0.000356907
0.000141941
0.000143297
7.24357e-05
6.75882e-05
0.000214377
0.000423494
0.000210477
0.000205116
0.000141975
0.000285125
0.000141935
6.75882e-05
0.000281492
0.000141935
0.000142936
0.000278178
7.10803e-05
7.09676e-05
0.000212903
0.000344738
0.000142821
7.09676e-05
0.000422507
0
0.000282446
6.84315e-05
0.000140428
7.10803e-05
0.000208929
0.000212354
0.000212233
0.000137003
0.000210547
0
0.000143611
0.000208578
7.19458e-05
0.000424135
0.000140332
7.19458e-05
0.000212411
0
6.83863e-05
7.18056e-05
7.18056e-05
0
0
6.84007e-05
0
0
0
0
0
0
0
0
0
0
0.000145763
0.000336506
0.000332584
0.00034144
0.000138189
0.000207107
0.000202757
0.00013151
0.000275077
0.000341235
0.000472952
0.000410689
0.000263681
0.000134436
6.82843e-05
0.00040824
0.00020191
0.000205161
0.000201943
6.51305e-05
0
6.51305e-05
0
0
6.84256e-05
0.000133556
0.000136813
0.000133593
0.000269749
0.000338323
0.000273943
0.000207933
0.000336537
0.000411789
0
6.58995e-05
0.000135094
6.58995e-05
0.000135094
0.000131799
0
6.60282e-05
6.93296e-05
6.91945e-05
6.91945e-05
0
6.58995e-05
0.000131813
0
0
0
0
0
0
0
0
0
0
0
0
0.00061405
0.000131876
0.000330391
0.000259858
0.000197869
0.000197485
0.000260166
0.000388622
0.000266581
0.000322499
0.000329262
0.000262113
0.000196126
0.00058865
0.000263961
0.000195811
0.00013065
0.000327582
6.59874e-05
0.000195744
0.000197962
6.59874e-05
6.60247e-05
0.000132012
0.000132835
0.000132012
0.000126539
0.000132049
6.68107e-05
0.000193481
0.000264331
0.000324841
0.000264331
0.000329524
0
0
0.00019712
6.67666e-05
6.35872e-05
0.000263887
0
0.000200561
0.000200561
0
6.67666e-05
6.67666e-05
6.35872e-05
0.000127188
6.67806e-05
0
0
0
0
0
0
0
0
0
0
0
0.000196819
0
0.000445791
0.000503219
0.000321972
0.000194243
0.000567618
0.000189493
0.000189376
0.000382481
0.000187597
0.000314799
0.00019347
0.000384631
0.000191257
0
0.000125423
0
6.38518e-05
0.000127501
6.38518e-05
6.07148e-05
6.37506e-05
6.37506e-05
0.000185216
0.000253519
6.15352e-05
0.000125322
0.000192185
0.000128456
0.000316906
0.000187682
0.000190759
0.000248354
6.38518e-05
6.15352e-05
6.14317e-05
0.000125935
0.000122863
0
0.000193762
0.000193888
0
0
0.000122863
0.000125935
6.14317e-05
6.14317e-05
0
0
0
0
6.14317e-05
0
0
0
0
0
0
0
0.000309184
0.000243664
0.000308556
0.000366845
0.000305563
0.00024326
0.000187239
0.000122347
0.000124504
0.000361197
6.2936e-05
0.000183167
0.000183167
0.000242367
6.15678e-05
0.000308418
0.000123321
0.000183841
0.000185177
0.000123517
0.000186142
0.000182334
0.000246642
0.000244768
0.000179878
0.000123321
0.00024381
0.000118275
5.95176e-05
0.000121947
6.24935e-05
0.000124987
0.000122011
5.95176e-05
6.24935e-05
5.94176e-05
0.000240641
0
0.000181224
0.000243728
0.000121922
0.000178601
5.95336e-05
6.23885e-05
0.00030303
0
0.000121806
5.94301e-05
0
0
6.24016e-05
0
0
0
0
0
0
0
0
0
0.000120734
0.000178091
0.000353029
0.000178673
0.000353823
0.0001186
0.000355826
0.000413569
0.00017587
0.000292338
0.000358742
0.000292587
0.000177163
0.000291086
5.97977e-05
0.000174135
0.000119316
0.000119316
0.000120343
5.97029e-05
0.000239001
0.000293043
0.000236002
5.97029e-05
0.000173423
5.97029e-05
0.000238812
0.00011372
5.97367e-05
0.000120184
0
0.000181529
5.76282e-05
0.000301836
0.000362956
0.000238958
0.000117939
0.000117939
0.000117939
0
0.000118057
0.000115287
0.00011817
5.9464e-05
0
0
0
0
0
0.000117964
6.04206e-05
6.04548e-05
0
0
0
0
0
0
0
0
0.000116968
0.000515293
0.000229695
0.000287559
5.62505e-05
0.000226919
0.000287122
0.000398992
0.000228238
0.000286406
0.000287029
0.000175244
0.00022653
0.000170367
0.000171982
0.000286986
0.000115916
0.000115824
0.000114933
0
0.00011664
0.000229486
0
5.78659e-05
5.78659e-05
0.000115732
0.000173696
0.000115797
5.78986e-05
0.000116539
0.000170298
5.79578e-05
0.000349094
0
0.000457917
0.000116605
0.000111522
0.000167283
0.000175647
0.000172974
0.000117098
0.000114534
5.76343e-05
0.000173088
5.85492e-05
5.57611e-05
0
0
5.57728e-05
5.85615e-05
0
0
0
0
0
0
0
0
0
0
0
5.42195e-05
0.00016537
0.000335485
0.000278029
0.000219344
0.000500193
0.000278982
0.000336247
0.000280304
0.000281676
0.000162256
0.000387574
0.000496895
0.00027689
0.000169408
0.00045054
0.000280876
0.000112277
0.000110447
0.000109778
0.000110481
0.000112366
0.000112277
5.61386e-05
0.000168416
0.000221881
0
0.000338627
0.0002215
0.00016792
0
0.000165272
0
0.000281107
0.000219278
0
0
0.0003922
0
0.000276109
0.000224834
0
0.000111115
0
5.40966e-05
0
0
0
0
0
0
0
0
0
0
0
0
0
0
0.000220043
0.000163801
0.000165275
0.00043111
0.000542222
0.000272344
0.000643972
0.000326572
0.000273052
0.000215088
0.000216791
0.000271411
0.000215006
0.000378915
0.000105979
0.000326608
0.000106267
5.45114e-05
0.000217186
0.000106513
0.000327374
0.000324966
0.000163707
0
0.000163534
0.000160938
0.000163596
0.000218045
5.45422e-05
0.000109084
0.000107105
0.000165744
0.000326225
0.000157851
0.000275589
0.000107776
5.45979e-05
0.000160212
0.000160212
0
0.000270625
0.000160417
5.52627e-05
0.000165788
5.5155e-05
0.000105057
0
5.5155e-05
0
0
0
0
0
0
0
0
0
0
0
0
0.000823346
0.000209897
0.00036613
0.000206378
0.000362832
0.00020911
0.000259088
0.00026007
0.000265012
0.000262503
0.0003644
5.11649e-05
0.000257588
0.000105569
0.000263685
0
0.000155722
0.000261846
5.14969e-05
5.29758e-05
0.000159679
0.000106699
0.00015798
5.30599e-05
0.000105952
0.000156405
0.000105952
0.000105952
5.30058e-05
5.30058e-05
0.000371803
5.11348e-05
0.000158518
5.11348e-05
0.000526689
0.000160985
0.000106752
0
0.000160804
5.36013e-05
0.000155699
0
5.11486e-05
0
5.36013e-05
0
5.36013e-05
5.36013e-05
0
0
0
0
0
0
0
0
0
0
0
0
0
0.000356576
0.000304819
0.000149029
0.000154417
0.000198446
0.000205884
0.000356624
0.000306928
0.00030174
0.000509661
0.000205395
0.000357569
0.000104299
0.000255872
0.000253311
0.000151778
0.000151969
0
0.000309091
5.22513e-05
0.000102894
0.000253524
0.000154655
0.000103212
5.16062e-05
0.000100595
0.000252715
0.000103049
0.000103937
0.000101901
0.000151688
0.000101954
4.97339e-05
0
0.000156574
0.00020561
0.000150907
0.000153916
0.000203566
0.000459362
5.21328e-05
0
0.000101066
0.000202752
0.000104266
0
5.21328e-05
0
0
0
0
0
0
0
0
0
0
0
0
0.000104591
0.000150299
0.000200711
0.00019809
0.000347622
0.000200742
0.00035101
0.000345922
0.000148291
0.000400685
0.000244474
0.000294213
4.83716e-05
0.000147851
0.000249678
0.000100305
0.000196167
0.000299868
0.000151163
0.000249214
0.000146591
0.000195024
0.00014471
0.000101008
0.000196734
5.01504e-05
5.01504e-05
0.000198214
5.01788e-05
0.000100329
0.000249073
0.000250466
0
9.92357e-05
0.000297707
0.000200806
9.90689e-05
0.000146419
0.000149812
0.000302039
0.00049786
0
9.92624e-05
0
0
5.07426e-05
0
0
0
4.83365e-05
0
0
0
0
0
0
0
0
0
0
0
0.000292119
0.000195271
0.000235916
0.000389088
9.42303e-05
0.000146813
0.000387827
0.00014573
9.69551e-05
0.000195467
9.40797e-05
0.000289832
9.6454e-05
0.000239905
0.000142854
4.89254e-05
0.000286873
9.49683e-05
9.83114e-05
9.6715e-05
0.000191978
0.000245699
0.000243291
0.000146776
0.000388841
0.000195391
9.76957e-05
0.000241941
0.000241085
0.000292792
9.84332e-05
0.000195086
0.000195674
9.61034e-05
0.000146166
9.65749e-05
9.89324e-05
9.88492e-05
9.88492e-05
0.000148274
0
9.66842e-05
4.95212e-05
4.94246e-05
0.000143567
0
0
0
0
0
0
0
0
0
0
0
0
0
0
0
0.000329442
0.000234643
0.000420909
9.41125e-05
0.000234923
0.000426856
0.00037801
0.000234941
0.000234604
0.000233885
0.000326151
4.6282e-05
0.000234417
9.6483e-05
0.000233994
9.38217e-05
0.000142565
9.35233e-05
4.6282e-05
0.000144732
9.45763e-05
0.000188118
0.000140498
0.000140718
9.30307e-05
0.000140566
4.76112e-05
0.000235816
0.000140593
0.000141233
4.76381e-05
0.000144196
4.82545e-05
0.00019072
0.000188422
4.76868e-05
0.000144033
0.000142226
0.000142226
0.00014452
0
0
0
4.81734e-05
9.40528e-05
0
0
0
0
0
0
0
0
0
0
0
0
0
0
0
0.000171638
0.00017115
0.000171638
0.000209971
0.000387889
0.000253599
0.000303825
0.000339763
0.000172294
8.43818e-05
0.000260858
0.000297592
0.000211619
0.000171939
0.000171849
0.000127738
0.00021271
8.62057e-05
0.000172337
4.40148e-05
0.000174447
0.000216034
4.34715e-05
0.000256231
8.48728e-05
0.000171681
4.34026e-05
0.000217013
0.000173679
0.000168509
0.000218983
0
0.000387029
0.000129872
0.000129355
0.000128344
8.52953e-05
4.3915e-05
8.57389e-05
0.000127563
0.00012773
8.80016e-05
8.80016e-05
4.18238e-05
0
0
0
0
0
0
0
0
0
0
0
0
0
0
0
0
0.000386475
0.000344632
0.000216246
0.000127605
8.81781e-05
0.000215688
0.000297966
0.000344165
0.000424423
0.00021832
0.000214095
8.57867e-05
0.000256173
0.000300564
0.000213626
0.000215876
0.000254465
4.23184e-05
8.70712e-05
4.34683e-05
4.3479e-05
0.000129255
4.34683e-05
0.000257067
0.000171104
0.000127106
8.49944e-05
0.000126455
8.70674e-05
0.000174159
0.000304707
4.20209e-05
8.76352e-05
0.000130265
8.82438e-05
0
0.000173278
4.36028e-05
8.76506e-05
0.000302042
0.000174094
4.20322e-05
0.0001303
0.00012803
0
0
0
4.40478e-05
0
0
0
0
0
0
0
0
0
0
0
0
0.000131592
0.000130046
0.000261294
0.000259319
0.000177208
0.000394438
0.000217576
0.000217246
0.000211242
0.000221777
0.000389095
0.000170875
4.45686e-05
0.000171887
0.000130561
8.63676e-05
0.000130977
0.000129088
0.00013121
0.000261451
0.000172092
4.35997e-05
0.000127339
0.000131616
0.000130945
0.000173854
8.74641e-05
0.000218465
0
0.000260474
0.000213265
0.000302635
8.73799e-05
0.000131724
0.000130658
0.000302944
0.000130658
4.42552e-05
0
0.000128335
8.62579e-05
4.41809e-05
0
0
4.2077e-05
0
0
0
0
0
0
0
0
0
0
0
0
0
0
0
0.000518816
0.000129174
0.000217555
0.000262242
0.000302346
0.000395945
0.000217371
0.00038892
0.000346489
0.000131276
0.000219987
0.00026429
0.000130929
0.000174208
0.000264288
8.90592e-05
4.47033e-05
0.000352674
8.69031e-05
0.000173209
0.00021403
4.47033e-05
0.000131009
0.000132166
8.74629e-05
0.000131395
8.82123e-05
0.000259928
0.000262922
8.75945e-05
0.000258703
0.000216925
4.3822e-05
0.000260933
8.45505e-05
8.8778e-05
0.000172806
0.000259424
0.000130556
8.60709e-05
0.000219462
0
4.22042e-05
8.65186e-05
0.000176825
4.43144e-05
4.43144e-05
0
0
0
0
0
0
0
0
0
0
0
0
0
0.000217231
0.000172765
0.000173697
0.000564182
0.000257949
0.00039212
0.000130835
0.000439191
0.000218054
0.000259626
8.47428e-05
0.000216758
0.000346923
0.000267288
8.42755e-05
0
0.000133415
0.000262703
0.000176136
8.75416e-05
0.000215018
0.000132004
0.000131405
0.00030621
4.45599e-05
0.00012968
0.000220014
0.000130907
0.000131859
0.000347459
0.000303323
0.000172292
0.000174241
0.000216104
8.63141e-05
8.69261e-05
0.000175972
0.000131449
4.2403e-05
0.000260108
4.23317e-05
0.000131228
8.678e-05
0.000133432
4.44483e-05
8.90702e-05
8.678e-05
0
0
0
0
0
0
0
0
0
0
0
0
0
4.24994e-05
0.000173607
0.000174307
0.000221057
0.000257178
8.92488e-05
0.000520356
0.000171714
0.00043971
0.000345823
0.00017458
0.000265595
0.000218307
0.000220505
0.00025986
0.000261445
0.00030607
0.000131694
0.000215252
0.000129597
0.000176427
0.00013278
0.000348691
0
0.000130638
0.000128497
0.000133665
0.000260475
0
0.000351779
0
0.000132237
0.000174151
0.000220337
0.000220936
0.000178105
0.000261472
8.71888e-05
0.000131846
8.879e-05
0.000132922
0.000129502
0.000133748
4.45826e-05
8.49193e-05
0
0
4.24596e-05
0
0
0
0
0
0
0
0
0
0
0
0
0.000132206
0.000132263
0.00017811
0.000523409
0.000219944
0.000176035
0.000130075
0.000303835
0.000306456
0.000353784
0.000304629
0.000219374
0.000299934
0.000264616
0.00021984
4.26279e-05
0.00013212
0.00013248
0.000216365
0.000134601
0.000222206
0.000309143
4.29617e-05
8.76933e-05
0.000175162
0
8.56464e-05
0.000266445
0.000129635
4.42657e-05
0.000219013
0.000218873
4.41955e-05
0.000221003
4.42205e-05
0.000130277
0.000219165
0.00022183
0.000174905
8.69504e-05
0.000214761
4.47926e-05
8.73053e-05
0.000174611
0
0
4.26711e-05
4.47174e-05
0
0
0
0
0
0
0
0
0
0
0
0
0.000489161
0.000219264
0.00039199
8.9849e-05
0.000394613
0.000175359
0.00025994
0.000397199
0.000129996
0.000348616
0.000264101
0.000222335
9.01129e-05
0.00017082
0
0.00017955
0.000395266
0.000133232
8.71561e-05
0.000390063
0.000262692
0.000218495
0.000222659
9.01129e-05
0.000219712
0.000217612
0.000175692
0.000133306
0.000306696
0.000173827
8.87536e-05
0.000221856
0.00017523
0.000175205
0.000175276
8.86832e-05
0.000177417
0.000134255
0.000173294
0.000132645
0.0002669
0
0
4.48525e-05
0.000130286
4.49401e-05
4.49401e-05
4.27167e-05
0
0
0
0
0
0
0
0
0
0
0
0
0.000265516
0.000263369
0.000261839
0.000306782
0.000133064
0.000349258
0.00017754
0.00047947
0.00013201
0.000353372
0.000220896
0.00022098
4.45336e-05
0.000220366
0.000130329
0.000172718
0.000308278
0.000130232
0.000175832
0.000221198
0.000175234
0.000178312
0.000492046
0.000175934
0.000215384
0.000175048
0.000128726
4.32218e-05
8.87925e-05
0.000131746
4.29431e-05
0.000262314
0.000133389
8.89763e-05
0.000133389
0.000171584
0.000259555
8.5792e-05
0.000177579
0
0.000132515
0
8.78338e-05
8.99761e-05
8.56915e-05
4.29294e-05
9.01518e-05
0
0
0
0
0
0
0
0
0
0
4.30996e-05
0
4.29176e-05
4.52266e-05
0.0002195
0.000307238
0.000309365
0.000224956
0.000174388
0.000131258
0.000397162
0.000176424
0.000437908
0.00021627
0.00030604
0.000400287
4.51663e-05
8.81818e-05
0.000264519
0.000175861
0.00022153
0.000133348
0.00013285
0.000305175
9.06584e-05
0.000221867
0.000225776
8.81818e-05
8.55301e-05
0.000219434
8.78828e-05
8.78828e-05
0.000310394
0.000130709
0.000132339
0.000178673
4.45974e-05
0.000133792
0.000268308
0.00017689
8.93312e-05
8.82036e-05
0.0001356
9.03999e-05
0.00022324
8.82475e-05
8.80992e-05
0.000131074
0.000131163
0
0
4.5124e-05
0
0
0
0
0
0
0
0
0
0
0
0.000438396
0.000309848
4.53632e-05
0.000265581
0.000177075
0.000179232
0.000313044
0.000172755
0.000222257
0.000304973
0.000178672
0.000133312
8.85087e-05
9.0106e-05
0.000178554
8.57886e-05
8.84483e-05
0.000176897
0.000131594
0.000219496
8.6291e-05
0.000134061
0.000219904
4.52748e-05
0.000133151
4.34834e-05
8.69668e-05
0.000134798
0.000265576
0.000267037
0.000268688
4.53632e-05
0.000132738
0.00017474
0.000264204
0.000394382
4.47322e-05
0.000179005
9.06268e-05
4.53366e-05
8.85142e-05
0.00017487
0.000134943
8.57748e-05
4.31051e-05
9.05207e-05
0
0
0
0
0
0
0
0
0
0
0
0
0
0
0.000315713
0.000136501
0.000267427
0.000226819
0.000358986
0.000315653
0.000265321
0.000225335
0.000263181
0.000178653
0.000313489
0.000267931
0.000135317
0.000401023
0.000309037
8.81404e-05
0.000218042
0.000180757
0.000131963
0.000220707
0.000222635
9.08794e-05
0.000312236
8.82383e-05
9.08794e-05
8.72296e-05
4.32492e-05
0.000178437
8.94103e-05
0.000174459
4.55003e-05
4.48e-05
4.48674e-05
0.000358353
0.00026721
0.000134602
0.000179495
0.000135187
4.54736e-05
4.33082e-05
0.00013209
0.00013209
4.49386e-05
4.53971e-05
9.07943e-05
0
4.54858e-05
4.54858e-05
0
0
0
0
0
0
0
0
0
0
0
0
0.000314795
0.000222716
0.000175916
8.89837e-05
0.000314439
0.000309913
0.000221669
0.000177641
0.000357337
0.000271596
9.07122e-05
0.000136913
0.000178025
0.00013474
4.34067e-05
0.000130278
8.8539e-05
0.000272518
0.000134058
4.5577e-05
0.000134561
4.34067e-05
4.5577e-05
0.00013239
4.34067e-05
0.000133042
0.000132127
0.000176789
0.000132609
8.96805e-05
0
0.00018074
0.000136507
9.01488e-05
0.000271359
9.00059e-05
0.000220729
9.00773e-05
0.000268642
0
0.000134124
8.905e-05
4.5611e-05
4.50744e-05
4.55343e-05
0.000134435
0
4.56233e-05
0
0
0
0
0
0
0
0
0
0
0
0
0.000226435
0.000311146
0.00013291
0.000309473
0.000314821
0.000180263
0.000359101
0.0004468
0.000221801
0.000178624
0.000308336
0.00017594
0.000223273
0.000308734
0.000178025
0.000180236
0.000224281
4.35378e-05
8.87484e-05
8.87484e-05
0
8.92526e-05
4.57147e-05
0
4.35378e-05
4.38788e-05
0.000178477
0.000133912
0.000266539
0.000178969
8.77576e-05
0.000309393
4.52106e-05
8.5979e-05
9.09863e-05
9.02779e-05
9.03034e-05
8.86648e-05
0.000271469
0.000134458
0.000178638
8.71406e-05
0.000132889
0
4.35703e-05
0
9.13439e-05
0
0
0
0
0
0
0
0
0
0
0
0
0
0.000362775
0.000267279
0.000226817
0.00031395
0.000272731
0.000313509
0.000265969
0.000310467
0.000268867
0
0.000135436
0.000131067
0.000268809
0.000222775
0.000225017
8.96418e-05
0.000137114
0.000224959
0.000222267
0.000136547
0.000134894
0.000176861
0.000179045
8.73388e-05
0.000275117
9.16775e-05
0.000176861
0.000133534
4.52725e-05