/*--------------------------------*- C++ -*----------------------------------*\
| =========                 |                                                 |
| \\      /  F ield         | OpenFOAM: The Open Source CFD Toolbox           |
|  \\    /   O peration     | Version:  v1906                                 |
|   \\  /    A nd           | Web:      www.OpenFOAM.com                      |
|    \\/     M anipulation  |                                                 |
\*---------------------------------------------------------------------------*/
FoamFile
{
    version     2.0;
    format      ascii;
    class       volScalarField;
    location    "2.83";
    object      T;
}
// * * * * * * * * * * * * * * * * * * * * * * * * * * * * * * * * * * * * * //

dimensions      [0 0 0 1 0 0 0];


internalField   nonuniform List<scalar> 
26400
(
1977.84
1977.87
1977.92
1978.01
1978.11
1978.25
1978.41
1978.6
1978.81
1979.03
1979.28
1979.55
1979.83
1980.13
1980.43
1980.74
1981.06
1981.38
1981.69
1982.01
1982.32
1982.61
1982.88
1983.13
1983.36
1983.54
1983.68
1983.77
1983.79
1983.74
1983.6
1983.38
1983.08
1982.69
1982.19
1981.58
1980.86
1980
1979.01
1977.87
1976.58
1975.12
1973.5
1971.69
1969.67
1967.39
1964.82
1961.87
1958.44
1954.38
1949.43
1943.19
1935.47
1925.35
1911.23
1890.14
1863.81
1829.11
1778.33
1680.58
1977.95
1977.98
1978.04
1978.13
1978.25
1978.39
1978.56
1978.75
1978.97
1979.21
1979.46
1979.74
1980.03
1980.34
1980.65
1980.98
1981.31
1981.63
1981.96
1982.28
1982.59
1982.89
1983.17
1983.42
1983.65
1983.83
1983.96
1984.04
1984.05
1983.98
1983.82
1983.58
1983.26
1982.84
1982.31
1981.66
1980.88
1979.96
1978.91
1977.7
1976.35
1974.83
1973.13
1971.24
1969.14
1966.78
1964.12
1961.09
1957.58
1953.43
1948.34
1942.29
1934.75
1924.86
1911.03
1890.2
1864.23
1829.99
1779.9
1683.31
1978.12
1978.15
1978.21
1978.3
1978.42
1978.57
1978.75
1978.95
1979.18
1979.43
1979.7
1979.99
1980.29
1980.6
1980.92
1981.26
1981.6
1981.95
1982.29
1982.62
1982.95
1983.25
1983.53
1983.78
1984
1984.18
1984.31
1984.38
1984.37
1984.29
1984.12
1983.86
1983.5
1983.05
1982.47
1981.76
1980.93
1979.97
1978.84
1977.57
1976.14
1974.54
1972.76
1970.78
1968.59
1966.14
1963.4
1960.28
1956.7
1952.49
1947.38
1941.35
1933.9
1924.16
1910.58
1890.04
1864.52
1830.81
1781.4
1685.84
1978.28
1978.32
1978.38
1978.47
1978.59
1978.75
1978.93
1979.15
1979.39
1979.66
1979.94
1980.25
1980.57
1980.9
1981.24
1981.59
1981.95
1982.3
1982.66
1983
1983.33
1983.63
1983.92
1984.18
1984.4
1984.57
1984.69
1984.75
1984.74
1984.64
1984.45
1984.16
1983.77
1983.27
1982.66
1981.92
1981.04
1980.02
1978.83
1977.47
1975.96
1974.28
1972.4
1970.33
1968.04
1965.49
1962.63
1959.41
1955.73
1951.43
1946.29
1940.27
1932.86
1923.2
1909.81
1889.69
1864.75
1831.61
1782.92
1688.28
1978.4
1978.44
1978.51
1978.61
1978.75
1978.92
1979.12
1979.35
1979.61
1979.89
1980.19
1980.52
1980.86
1981.21
1981.57
1981.94
1982.31
1982.68
1983.04
1983.4
1983.74
1984.06
1984.35
1984.6
1984.83
1985
1985.12
1985.17
1985.14
1985.03
1984.81
1984.49
1984.08
1983.55
1982.9
1982.11
1981.18
1980.1
1978.84
1977.42
1975.82
1974.05
1972.08
1969.9
1967.51
1964.85
1961.88
1958.53
1954.7
1950.23
1945.12
1939.1
1931.67
1921.97
1908.52
1889.09
1864.88
1832.37
1784.48
1690.51
1978.51
1978.55
1978.63
1978.74
1978.89
1979.07
1979.29
1979.54
1979.82
1980.13
1980.45
1980.8
1981.16
1981.54
1981.92
1982.31
1982.71
1983.09
1983.47
1983.83
1984.18
1984.51
1984.81
1985.08
1985.31
1985.49
1985.6
1985.64
1985.61
1985.47
1985.23
1984.89
1984.44
1983.88
1983.19
1982.34
1981.36
1980.22
1978.89
1977.39
1975.72
1973.85
1971.8
1969.53
1967.02
1964.24
1961.15
1957.67
1953.72
1949.15
1943.99
1937.91
1930.42
1920.52
1906.2
1888.35
1865.05
1833.14
1785.98
1692.49
1978.6
1978.64
1978.73
1978.86
1979.03
1979.23
1979.47
1979.73
1980.03
1980.36
1980.7
1981.07
1981.46
1981.86
1982.27
1982.69
1983.1
1983.52
1983.92
1984.3
1984.67
1985.01
1985.33
1985.6
1985.83
1986
1986.12
1986.16
1986.12
1985.97
1985.71
1985.34
1984.86
1984.26
1983.52
1982.63
1981.59
1980.38
1978.99
1977.41
1975.66
1973.72
1971.57
1969.19
1966.56
1963.66
1960.43
1956.79
1952.63
1948.04
1942.83
1936.74
1929.28
1919.52
1905.51
1888.12
1865.34
1833.9
1787.34
1694.21
1978.65
1978.7
1978.8
1978.95
1979.15
1979.37
1979.63
1979.93
1980.25
1980.6
1980.98
1981.37
1981.78
1982.2
1982.64
1983.08
1983.53
1983.97
1984.39
1984.8
1985.19
1985.55
1985.88
1986.16
1986.4
1986.58
1986.68
1986.73
1986.68
1986.52
1986.24
1985.84
1985.33
1984.69
1983.91
1982.97
1981.86
1980.57
1979.12
1977.47
1975.65
1973.61
1971.36
1968.88
1966.14
1963.11
1959.74
1955.97
1951.69
1946.97
1941.64
1935.46
1927.98
1918.33
1904.63
1887.78
1865.59
1834.65
1788.65
1695.64
1978.75
1978.79
1978.9
1979.05
1979.26
1979.51
1979.8
1980.12
1980.47
1980.85
1981.25
1981.67
1982.11
1982.56
1983.02
1983.5
1983.97
1984.44
1984.9
1985.34
1985.75
1986.13
1986.47
1986.77
1987.02
1987.21
1987.33
1987.36
1987.3
1987.13
1986.83
1986.42
1985.89
1985.21
1984.4
1983.41
1982.25
1980.9
1979.36
1977.63
1975.71
1973.58
1971.22
1968.62
1965.75
1962.59
1959.07
1955.14
1950.72
1945.87
1940.4
1934.09
1926.52
1916.9
1903.52
1887.26
1865.76
1835.41
1789.89
1696.61
1978.86
1978.91
1979.02
1979.18
1979.39
1979.65
1979.95
1980.3
1980.69
1981.11
1981.54
1982
1982.48
1982.96
1983.46
1983.96
1984.47
1984.96
1985.45
1985.91
1986.35
1986.75
1987.11
1987.43
1987.69
1987.9
1988.02
1988.05
1987.98
1987.81
1987.51
1987.08
1986.52
1985.81
1984.95
1983.91
1982.69
1981.28
1979.68
1977.88
1975.87
1973.63
1971.16
1968.43
1965.41
1962.09
1958.4
1954.28
1949.77
1944.77
1939.13
1932.63
1924.86
1915.12
1902.15
1886.54
1865.84
1836.15
1791.13
1697.5
1978.98
1979.03
1979.15
1979.32
1979.53
1979.81
1980.13
1980.5
1980.91
1981.36
1981.84
1982.34
1982.85
1983.38
1983.92
1984.46
1984.99
1985.52
1986.03
1986.52
1986.99
1987.42
1987.8
1988.14
1988.43
1988.64
1988.77
1988.81
1988.75
1988.57
1988.26
1987.82
1987.25
1986.51
1985.61
1984.52
1983.24
1981.77
1980.08
1978.19
1976.08
1973.75
1971.17
1968.33
1965.19
1961.72
1957.88
1953.6
1948.92
1943.73
1937.9
1931.16
1923.06
1912.66
1900.6
1885.7
1865.77
1836.89
1792.4
1698.36
1979.08
1979.14
1979.26
1979.45
1979.68
1979.98
1980.32
1980.71
1981.15
1981.63
1982.15
1982.69
1983.24
1983.8
1984.38
1984.96
1985.53
1986.1
1986.65
1987.17
1987.67
1988.13
1988.55
1988.91
1989.22
1989.44
1989.59
1989.64
1989.58
1989.4
1989.09
1988.64
1988.04
1987.29
1986.35
1985.25
1983.89
1982.33
1980.57
1978.59
1976.39
1973.95
1971.26
1968.3
1965.03
1961.42
1957.43
1952.98
1948.12
1942.75
1936.73
1929.83
1921.61
1911.25
1899.38
1884.86
1865.54
1837.49
1793.83
1699.9
1979.18
1979.24
1979.37
1979.56
1979.81
1980.13
1980.5
1980.92
1981.39
1981.9
1982.45
1983.03
1983.63
1984.24
1984.86
1985.49
1986.1
1986.71
1987.3
1987.87
1988.4
1988.9
1989.35
1989.75
1990.08
1990.32
1990.49
1990.55
1990.5
1990.33
1990.01
1989.55
1988.94
1988.15
1987.18
1986.03
1984.61
1982.99
1981.14
1979.09
1976.79
1974.25
1971.45
1968.36
1964.95
1961.2
1957.05
1952.43
1947.38
1941.8
1935.56
1928.42
1920.01
1909.73
1898.07
1883.89
1865.12
1837.87
1795.26
1702.59
1979.27
1979.34
1979.48
1979.68
1979.95
1980.28
1980.67
1981.12
1981.61
1982.16
1982.74
1983.37
1984.01
1984.68
1985.35
1986.02
1986.69
1987.34
1987.98
1988.59
1989.17
1989.71
1990.21
1990.64
1991
1991.28
1991.47
1991.55
1991.52
1991.35
1991.03
1990.57
1989.95
1989.15
1988.16
1986.94
1985.46
1983.77
1981.86
1979.72
1977.33
1974.68
1971.74
1968.53
1964.99
1961.09
1956.78
1951.98
1946.73
1940.94
1934.44
1926.97
1918.04
1908.12
1896.7
1882.8
1864.48
1837.99
1796.77
1706.95
1979.38
1979.45
1979.59
1979.81
1980.09
1980.43
1980.84
1981.31
1981.84
1982.41
1983.03
1983.7
1984.39
1985.1
1985.83
1986.56
1987.28
1987.99
1988.69
1989.35
1989.98
1990.56
1991.1
1991.57
1991.97
1992.28
1992.5
1992.61
1992.6
1992.45
1992.14
1991.68
1991.06
1990.24
1989.23
1987.97
1986.45
1984.71
1982.73
1980.51
1978.03
1975.28
1972.25
1968.91
1965.23
1961.17
1956.68
1951.69
1946.25
1940.25
1933.55
1925.9
1916.85
1906.84
1895.4
1881.61
1863.62
1837.84
1798.3
1713.26
1979.46
1979.54
1979.7
1979.92
1980.22
1980.58
1981.01
1981.51
1982.06
1982.68
1983.33
1984.03
1984.77
1985.54
1986.32
1987.1
1987.88
1988.65
1989.4
1990.12
1990.81
1991.45
1992.04
1992.57
1993.02
1993.38
1993.63
1993.78
1993.8
1993.67
1993.39
1992.94
1992.32
1991.51
1990.48
1989.21
1987.66
1985.87
1983.84
1981.56
1979
1976.16
1973.02
1969.55
1965.72
1961.5
1956.83
1951.65
1946
1939.78
1932.86
1925.02
1915.83
1905.72
1894.24
1880.53
1862.89
1837.98
1800.44
1721.11
1979.54
1979.62
1979.78
1980.01
1980.33
1980.72
1981.18
1981.7
1982.28
1982.93
1983.63
1984.37
1985.16
1985.97
1986.81
1987.66
1988.5
1989.33
1990.15
1990.94
1991.69
1992.39
1993.04
1993.63
1994.13
1994.55
1994.85
1995.05
1995.11
1995.01
1994.76
1994.33
1993.73
1992.93
1991.91
1990.63
1989.07
1987.27
1985.21
1982.89
1980.27
1977.36
1974.12
1970.53
1966.57
1962.2
1957.37
1952
1946.13
1939.68
1932.53
1924.47
1915.15
1904.95
1893.45
1879.88
1862.7
1838.86
1803.45
1729.75
1979.59
1979.68
1979.84
1980.09
1980.42
1980.82
1981.3
1981.86
1982.48
1983.16
1983.9
1984.69
1985.53
1986.39
1987.28
1988.19
1989.1
1990
1990.89
1991.75
1992.59
1993.38
1994.11
1994.77
1995.34
1995.82
1996.19
1996.44
1996.55
1996.49
1996.27
1995.89
1995.32
1994.55
1993.55
1992.29
1990.76
1988.97
1986.91
1984.57
1981.93
1978.97
1975.66
1971.98
1967.92
1963.41
1958.45
1952.95
1946.82
1940.1
1932.69
1924.4
1914.9
1904.55
1892.97
1879.49
1862.76
1839.99
1806.38
1738.37
1979.63
1979.72
1979.89
1980.15
1980.5
1980.92
1981.42
1982.01
1982.66
1983.38
1984.16
1984.99
1985.88
1986.79
1987.74
1988.71
1989.68
1990.65
1991.61
1992.55
1993.45
1994.31
1995.11
1995.84
1996.5
1997.06
1997.52
1997.84
1998.03
1998.06
1997.9
1997.58
1997.08
1996.38
1995.44
1994.25
1992.77
1991.03
1989.02
1986.7
1984.08
1981.11
1977.79
1974.07
1969.93
1965.32
1960.2
1954.5
1948.14
1941.13
1933.37
1924.71
1914.88
1904.16
1892.21
1878.44
1861.81
1840.32
1808.88
1745.62
1979.66
1979.75
1979.93
1980.2
1980.56
1981
1981.53
1982.14
1982.82
1983.58
1984.4
1985.27
1986.21
1987.18
1988.18
1989.21
1990.24
1991.29
1992.31
1993.32
1994.29
1995.22
1996.1
1996.93
1997.67
1998.32
1998.87
1999.29
1999.57
1999.7
1999.66
1999.45
1999.06
1998.46
1997.63
1996.54
1995.18
1993.55
1991.64
1989.42
1986.88
1983.99
1980.73
1977.05
1972.93
1968.31
1963.13
1957.33
1950.83
1943.56
1935.45
1926.37
1916.11
1904.8
1892.15
1877.62
1860.33
1838.95
1808.38
1751.13
1979.68
1979.77
1979.96
1980.24
1980.62
1981.08
1981.63
1982.26
1982.97
1983.76
1984.62
1985.54
1986.51
1987.53
1988.59
1989.68
1990.78
1991.89
1992.99
1994.06
1995.11
1996.12
1997.08
1997.99
1998.83
1999.59
2000.24
2000.78
2001.18
2001.45
2001.55
2001.48
2001.24
2000.8
2000.15
1999.26
1998.11
1996.68
1994.97
1992.96
1990.65
1988
1984.99
1981.58
1977.73
1973.39
1968.51
1963.01
1956.8
1949.8
1941.93
1933.11
1923.21
1912.08
1899.77
1885.96
1869.7
1850.11
1822.48
1754.75
1979.76
1979.87
1980.07
1980.37
1980.79
1981.3
1981.9
1982.59
1983.38
1984.24
1985.18
1986.19
1987.26
1988.39
1989.55
1990.75
1991.96
1993.17
1994.37
1995.54
1996.68
1997.77
1998.81
1999.79
2000.69
2001.5
2002.2
2002.78
2003.21
2003.47
2003.54
2003.44
2003.13
2002.6
2001.84
2000.8
1999.47
1997.86
1995.94
1993.7
1991.1
1988.14
1984.77
1980.94
1976.61
1971.72
1966.19
1959.93
1952.84
1944.84
1935.85
1925.66
1914.04
1901.28
1887.19
1871.51
1853.65
1832.16
1800.97
1726.82
1979.89
1980
1980.23
1980.58
1981.03
1981.59
1982.25
1983.02
1983.89
1984.84
1985.87
1986.98
1988.15
1989.38
1990.66
1991.97
1993.28
1994.59
1995.87
1997.13
1998.35
1999.53
2000.65
2001.71
2002.67
2003.53
2004.26
2004.86
2005.29
2005.53
2005.55
2005.36
2004.97
2004.32
2003.39
2002.16
2000.64
1998.81
1996.64
1994.11
1991.2
1987.88
1984.11
1979.84
1975.03
1969.6
1963.47
1956.54
1948.74
1939.96
1930.04
1918.7
1906.31
1892.82
1878.14
1862.05
1843.95
1822.69
1792.2
1720.47
1980.11
1980.24
1980.48
1980.85
1981.35
1981.96
1982.68
1983.52
1984.46
1985.5
1986.62
1987.83
1989.12
1990.46
1991.84
1993.24
1994.64
1996.04
1997.41
1998.76
2000.07
2001.34
2002.53
2003.65
2004.68
2005.59
2006.36
2006.98
2007.42
2007.65
2007.63
2007.4
2006.92
2006.16
2005.11
2003.75
2002.08
2000.07
1997.7
1994.95
1991.79
1988.19
1984.1
1979.47
1974.26
1968.37
1961.71
1954.21
1945.82
1936.46
1925.92
1913.87
1900.9
1886.95
1871.87
1855.34
1836.69
1814.78
1783.2
1712.38
1980.4
1980.54
1980.81
1981.21
1981.75
1982.42
1983.21
1984.11
1985.12
1986.24
1987.46
1988.76
1990.14
1991.59
1993.05
1994.53
1996.01
1997.5
1998.96
2000.41
2001.81
2003.16
2004.43
2005.62
2006.72
2007.69
2008.51
2009.15
2009.6
2009.82
2009.77
2009.48
2008.93
2008.09
2006.94
2005.46
2003.64
2001.48
1998.93
1995.99
1992.61
1988.75
1984.4
1979.48
1973.94
1967.7
1960.63
1952.73
1943.93
1934.19
1923.23
1910.74
1897.37
1883.05
1867.59
1850.59
1831.26
1808.16
1774.73
1703.29
1980.8
1980.95
1981.23
1981.66
1982.24
1982.95
1983.78
1984.74
1985.83
1987.02
1988.32
1989.72
1991.21
1992.73
1994.29
1995.85
1997.43
1999
2000.56
2002.09
2003.58
2005.02
2006.38
2007.66
2008.83
2009.85
2010.72
2011.4
2011.86
2012.08
2012.01
2011.68
2011.08
2010.18
2008.94
2007.36
2005.43
2003.14
2000.45
1997.35
1993.8
1989.75
1985.19
1980.03
1974.22
1967.64
1960.21
1951.91
1942.7
1932.56
1921.19
1908.28
1894.61
1880.04
1864.27
1846.78
1826.5
1801.47
1764.27
1688.51
1981.3
1981.46
1981.77
1982.23
1982.83
1983.57
1984.45
1985.47
1986.63
1987.89
1989.28
1990.78
1992.33
1993.91
1995.54
1997.19
1998.86
2000.53
2002.18
2003.8
2005.39
2006.92
2008.38
2009.74
2010.98
2012.06
2012.98
2013.68
2014.16
2014.37
2014.28
2013.94
2013.31
2012.35
2011.06
2009.41
2007.38
2004.97
2002.14
1998.9
1995.19
1990.97
1986.21
1980.83
1974.74
1967.86
1960.13
1951.5
1941.9
1931.31
1919.58
1906.47
1892.65
1877.88
1861.83
1843.91
1822.79
1795.56
1752.99
1666.78
1981.9
1982.05
1982.37
1982.86
1983.5
1984.29
1985.23
1986.32
1987.53
1988.85
1990.28
1991.81
1993.42
1995.09
1996.8
1998.56
2000.33
2002.09
2003.83
2005.55
2007.25
2008.9
2010.46
2011.92
2013.24
2014.38
2015.32
2016.03
2016.5
2016.7
2016.6
2016.25
2015.61
2014.65
2013.33
2011.62
2009.52
2007
2004.06
2000.69
1996.83
1992.46
1987.52
1981.93
1975.62
1968.48
1960.48
1951.54
1941.55
1930.02
1917.82
1904.87
1891.06
1876.19
1859.94
1841.62
1819.72
1790.15
1740.39
1633.87
1982.63
1982.79
1983.13
1983.63
1984.29
1985.1
1986.06
1987.17
1988.4
1989.77
1991.25
1992.84
1994.5
1996.25
1998.05
1999.87
2001.7
2003.52
2005.35
2007.17
2008.97
2010.7
2012.34
2013.86
2015.24
2016.44
2017.42
2018.18
2018.69
2018.94
2018.93
2018.62
2018.01
2017.07
2015.74
2013.97
2011.77
2009.14
2006.08
2002.58
1998.58
1994.07
1988.95
1983.14
1976.6
1969.27
1961.06
1951.85
1941.49
1929.72
1917.38
1904.34
1890.43
1875.44
1859.06
1840.69
1818.96
1790.07
1742.29
1639.15
1983.34
1983.49
1983.83
1984.36
1985.05
1985.89
1986.91
1988.06
1989.34
1990.77
1992.31
1993.95
1995.68
1997.5
1999.37
2001.25
2003.14
2005.05
2006.96
2008.87
2010.74
2012.54
2014.25
2015.83
2017.25
2018.48
2019.5
2020.28
2020.82
2021.06
2021.02
2020.68
2020.02
2019.01
2017.6
2015.75
2013.45
2010.69
2007.51
2003.86
1999.73
1995.1
1989.82
1983.83
1977.13
1969.65
1961.26
1951.85
1941.25
1929.37
1917
1903.92
1889.96
1874.88
1858.35
1839.82
1818.06
1789.64
1743.67
1643.7
1984.14
1984.31
1984.67
1985.21
1985.93
1986.81
1987.86
1989.05
1990.38
1991.87
1993.46
1995.18
1996.98
1998.86
2000.77
2002.73
2004.69
2006.68
2008.67
2010.64
2012.57
2014.44
2016.21
2017.86
2019.33
2020.59
2021.63
2022.43
2022.95
2023.19
2023.1
2022.71
2021.97
2020.88
2019.39
2017.43
2015.04
2012.17
2008.85
2005.08
2000.82
1996.04
1990.6
1984.47
1977.66
1970.01
1961.44
1951.75
1940.65
1929
1916.74
1903.68
1889.64
1874.4
1857.68
1838.98
1817.2
1789.19
1744.81
1648.08
1985.08
1985.26
1985.64
1986.18
1986.92
1987.81
1988.88
1990.13
1991.51
1993.04
1994.7
1996.48
1998.35
2000.3
2002.28
2004.3
2006.35
2008.42
2010.49
2012.52
2014.51
2016.44
2018.28
2019.98
2021.49
2022.78
2023.83
2024.62
2025.13
2025.34
2025.2
2024.74
2023.92
2022.72
2021.14
2019.1
2016.6
2013.64
2010.21
2006.31
2001.92
1996.99
1991.41
1985.18
1978.22
1970.45
1961.74
1951.9
1940.64
1928.93
1916.6
1903.49
1889.38
1874.01
1857.09
1838.15
1816.18
1788.42
1745.51
1652.09
1986.12
1986.32
1986.7
1987.27
1988.01
1988.94
1990.04
1991.33
1992.76
1994.34
1996.07
1997.9
1999.83
2001.84
2003.89
2006
2008.13
2010.28
2012.43
2014.54
2016.59
2018.59
2020.47
2022.19
2023.72
2025.01
2026.06
2026.85
2027.35
2027.52
2027.35
2026.83
2025.96
2024.67
2022.98
2020.82
2018.19
2015.11
2011.55
2007.52
2003
1997.91
1992.17
1985.8
1978.7
1970.78
1961.92
1951.92
1940.58
1928.83
1916.48
1903.31
1889.1
1873.58
1856.44
1837.24
1815.08
1787.49
1745.86
1655.76
1987.32
1987.5
1987.88
1988.45
1989.22
1990.17
1991.33
1992.65
1994.15
1995.79
1997.55
1999.43
2001.42
2003.5
2005.63
2007.8
2010
2012.23
2014.44
2016.63
2018.75
2020.79
2022.71
2024.47
2026.01
2027.32
2028.37
2029.13
2029.61
2029.76
2029.56
2028.98
2028.04
2026.67
2024.85
2022.57
2019.81
2016.56
2012.89
2008.69
2004.02
1998.78
1992.89
1986.36
1979.09
1971
1961.93
1951.74
1940.35
1928.58
1916.22
1903.02
1888.73
1873.07
1855.71
1836.2
1813.73
1786.13
1745.64
1658.84
1988.6
1988.79
1989.17
1989.76
1990.56
1991.54
1992.74
1994.11
1995.65
1997.34
1999.17
2001.12
2003.17
2005.3
2007.5
2009.76
2012.05
2014.32
2016.58
2018.81
2020.99
2023.08
2025.05
2026.83
2028.4
2029.7
2030.75
2031.51
2031.96
2032.07
2031.8
2031.16
2030.12
2028.65
2026.7
2024.27
2021.36
2017.99
2014.16
2009.79
2004.96
1999.54
1993.48
1986.78
1979.33
1971.05
1961.69
1950.98
1939.83
1928.15
1915.79
1902.55
1888.16
1872.34
1854.74
1834.9
1812.08
1784.4
1744.87
1661.32
1990
1990.2
1990.61
1991.23
1992.05
1993.06
1994.28
1995.69
1997.26
1999
2000.9
2002.91
2005.03
2007.22
2009.51
2011.84
2014.18
2016.53
2018.85
2021.13
2023.36
2025.49
2027.49
2029.3
2030.88
2032.19
2033.22
2033.95
2034.36
2034.4
2034.08
2033.37
2032.27
2030.62
2028.53
2025.95
2022.89
2019.36
2015.35
2010.85
2005.84
2000.21
1993.98
1987.07
1979.45
1970.97
1961.45
1950.58
1939.31
1927.54
1915.09
1901.75
1887.26
1871.29
1853.45
1833.25
1809.97
1781.99
1743.21
1662.92
1991.49
1991.71
1992.16
1992.81
1993.65
1994.69
1995.92
1997.36
1998.98
2000.76
2002.72
2004.79
2006.98
2009.24
2011.6
2014.01
2016.43
2018.86
2021.21
2023.56
2025.82
2027.98
2030
2031.85
2033.45
2034.74
2035.73
2036.44
2036.81
2036.81
2036.41
2035.63
2034.38
2032.6
2030.31
2027.54
2024.3
2020.6
2016.4
2011.68
2006.49
2000.68
1994.21
1987.09
1979.26
1970.6
1960.87
1949.8
1938.41
1926.54
1913.99
1900.52
1885.86
1869.67
1851.55
1830.94
1807.12
1778.7
1740.43
1663.26
1993.11
1993.33
1993.78
1994.43
1995.32
1996.39
1997.66
1999.16
2000.82
2002.67
2004.66
2006.8
2009.04
2011.37
2013.8
2016.28
2018.77
2021.27
2023.69
2026.08
2028.39
2030.59
2032.64
2034.48
2036.08
2037.35
2038.32
2038.99
2039.3
2039.24
2038.77
2037.92
2036.48
2034.5
2032.03
2029.09
2025.66
2021.74
2017.3
2012.39
2006.98
2000.92
1994.24
1986.86
1978.74
1969.76
1959.69
1948.46
1936.94
1924.97
1912.27
1898.6
1883.7
1867.23
1848.74
1827.66
1803.17
1774.03
1735.92
1661.59
1994.76
1995
1995.46
1996.15
1997.06
1998.18
1999.5
2001.05
2002.78
2004.68
2006.73
2008.9
2011.22
2013.62
2016.13
2018.69
2021.26
2023.84
2026.36
2028.76
2031.08
2033.29
2035.34
2037.2
2038.77
2040.02
2040.96
2041.56
2041.8
2041.67
2041.13
2040.12
2038.52
2036.37
2033.71
2030.57
2026.94
2022.81
2018.16
2012.97
2007.24
2000.88
1993.91
1986.24
1977.75
1968.32
1957.55
1946.44
1934.89
1922.75
1909.79
1895.8
1880.5
1863.55
1844.51
1822.75
1797.36
1767.04
1728.33
1656.17
1996.5
1996.74
1997.22
1997.94
1998.87
2000.01
2001.39
2002.98
2004.77
2006.72
2008.83
2011.1
2013.49
2015.99
2018.57
2021.21
2023.86
2026.51
2029.09
2031.54
2033.9
2036.12
2038.19
2040.05
2041.62
2042.82
2043.72
2044.26
2044.44
2044.23
2043.6
2042.35
2040.53
2038.16
2035.29
2031.92
2028.03
2023.64
2018.72
2013.23
2007.17
2000.5
1993.19
1985.13
1976.24
1966.37
1955.3
1943.97
1932.17
1919.71
1906.36
1891.86
1875.95
1858.27
1838.37
1815.59
1788.86
1756.64
1715.69
1643.8
1998.35
1998.6
1999.09
1999.81
2000.76
2001.95
2003.37
2005
2006.85
2008.87
2011.05
2013.39
2015.87
2018.45
2021.12
2023.84
2026.57
2029.29
2031.92
2034.44
2036.84
2039.08
2041.16
2042.97
2044.52
2045.68
2046.52
2047.01
2047.13
2046.86
2045.97
2044.5
2042.43
2039.85
2036.74
2033.09
2028.92
2024.21
2018.94
2013.06
2006.62
1999.56
1991.83
1983.32
1973.86
1963.13
1951.97
1940.37
1928.21
1915.25
1901.25
1885.93
1868.99
1850.05
1828.62
1803.98
1774.91
1739.25
1691.7
1616
2000.35
2000.6
2001.1
2001.83
2002.78
2003.96
2005.35
2006.97
2008.82
2010.85
2013.04
2015.39
2017.86
2020.43
2023.11
2025.85
2028.61
2031.4
2034.1
2036.7
2039.13
2041.4
2043.5
2045.37
2046.99
2048.25
2049.21
2049.83
2050.09
2049.98
2049.25
2047.98
2046.13
2043.72
2040.79
2037.31
2033.28
2028.75
2023.69
2018.04
2011.88
2005.17
1997.81
1989.8
1980.99
1971.18
1960.12
1948.82
1937.07
1924.62
1911.22
1896.55
1880.3
1862.05
1841.3
1817.25
1788.64
1753.14
1705.62
1630.3
2002.44
2002.69
2003.16
2003.87
2004.82
2005.98
2007.39
2009.01
2010.83
2012.83
2015
2017.36
2019.85
2022.43
2025.12
2027.87
2030.66
2033.46
2036.21
2038.85
2041.36
2043.66
2045.81
2047.75
2049.46
2050.86
2051.89
2052.61
2053.03
2053.09
2052.6
2051.56
2049.96
2047.77
2045.03
2041.71
2037.83
2033.49
2028.64
2023.24
2017.33
2010.88
2003.86
1996.2
1987.8
1978.49
1967.94
1956.94
1945.54
1933.54
1920.68
1906.66
1891.11
1873.62
1853.63
1830.32
1802.35
1767.3
1719.28
1639.13
2004.55
2004.81
2005.29
2005.99
2006.92
2008.09
2009.49
2011.09
2012.9
2014.9
2017.07
2019.4
2021.89
2024.48
2027.19
2029.97
2032.78
2035.58
2038.37
2041.08
2043.62
2045.96
2048.13
2050.13
2051.91
2053.41
2054.53
2055.37
2055.94
2056.03
2055.63
2054.74
2053.31
2051.29
2048.77
2045.69
2042.06
2037.82
2033.13
2027.93
2022.16
2015.9
2009.08
2001.65
1993.56
1984.71
1974.83
1963.68
1952.36
1940.54
1927.91
1914.15
1898.91
1881.74
1862.06
1839.04
1811.27
1776.17
1727.56
1645.64
2006.77
2007.01
2007.47
2008.15
2009.11
2010.28
2011.67
2013.26
2015.07
2017.06
2019.23
2021.54
2024
2026.61
2029.34
2032.13
2034.97
2037.83
2040.63
2043.35
2045.93
2048.35
2050.51
2052.53
2054.37
2055.95
2057.2
2058.06
2058.68
2058.82
2058.52
2057.76
2056.46
2054.57
2052.2
2049.3
2045.86
2041.88
2037.27
2032.16
2026.55
2020.39
2013.72
2006.48
1998.64
1990
1980.38
1969.45
1958.33
1946.7
1934.27
1920.73
1905.74
1888.84
1869.46
1846.76
1819.29
1784.35
1735.48
1651.31
2009.06
2009.28
2009.74
2010.44
2011.37
2012.55
2013.91
2015.5
2017.26
2019.23
2021.4
2023.73
2026.21
2028.82
2031.53
2034.34
2037.2
2040.05
2042.85
2045.59
2048.21
2050.68
2052.9
2055
2056.87
2058.49
2059.79
2060.71
2061.41
2061.61
2061.41
2060.71
2059.48
2057.69
2055.4
2052.6
2049.29
2045.48
2041.09
2036.05
2030.47
2024.43
2017.88
2010.81
2003.12
1994.67
1985.22
1974.44
1963.44
1951.9
1939.55
1926.11
1911.21
1894.42
1875.16
1852.56
1825.18
1790.25
1741.1
1655.98
2011.33
2011.57
2012.03
2012.71
2013.66
2014.84
2016.22
2017.79
2019.56
2021.52
2023.68
2026.02
2028.5
2031.13
2033.88
2036.68
2039.49
2042.31
2045.12
2047.88
2050.55
2053.1
2055.47
2057.53
2059.41
2061.07
2062.41
2063.38
2064.11
2064.38
2064.2
2063.56
2062.42
2060.71
2058.49
2055.75
2052.5
2048.78
2044.53
2039.67
2034.1
2028.14
2021.69
2014.74
2007.22
1998.93
1989.66
1979.04
1968.12
1956.62
1944.32
1930.94
1916.13
1899.44
1880.28
1857.81
1830.58
1795.76
1746.55
1660.3
2013.6
2013.86
2014.34
2015.07
2016.01
2017.19
2018.56
2020.13
2021.93
2023.89
2026.05
2028.39
2030.89
2033.51
2036.23
2038.97
2041.75
2044.6
2047.44
2050.21
2052.94
2055.54
2057.96
2060.08
2061.98
2063.67
2065.06
2066.08
2066.81
2067.1
2066.96
2066.35
2065.25
2063.61
2061.44
2058.76
2055.56
2051.88
2047.68
2042.89
2037.42
2031.55
2025.2
2018.32
2010.87
2002.74
1993.66
1983.28
1972.35
1960.83
1948.53
1935.15
1920.34
1903.66
1884.54
1862.1
1834.9
1800.11
1750.81
1664.11
2015.99
2016.23
2016.71
2017.44
2018.39
2019.55
2020.92
2022.49
2024.29
2026.26
2028.45
2030.83
2033.33
2035.9
2038.57
2041.32
2044.11
2046.98
2049.84
2052.67
2055.44
2058.09
2060.57
2062.8
2064.65
2066.32
2067.74
2068.86
2069.55
2069.83
2069.69
2069.1
2068.06
2066.49
2064.32
2061.65
2058.49
2054.85
2050.66
2045.93
2040.54
2034.73
2028.42
2021.62
2014.27
2006.27
1997.44
1987.49
1976.31
1964.72
1952.4
1939.03
1924.22
1907.54
1888.43
1866.03
1838.9
1804.19
1754.95
1667.77
2018.38
2018.62
2019.09
2019.8
2020.75
2021.92
2023.3
2024.87
2026.68
2028.66
2030.87
2033.19
2035.65
2038.25
2040.93
2043.67
2046.51
2049.4
2052.3
2055.17
2057.97
2060.7
2063.22
2065.48
2067.38
2069.04
2070.44
2071.54
2072.23
2072.49
2072.38
2071.83
2070.8
2069.26
2067.09
2064.44
2061.3
2057.67
2053.49
2048.69
2043.41
2037.63
2031.4
2024.68
2017.39
2009.48
2000.81
1991.06
1979.83
1968.27
1955.96
1942.56
1927.7
1910.98
1891.84
1869.42
1842.29
1807.61
1758.41
1671.15
2020.72
2020.97
2021.46
2022.17
2023.12
2024.3
2025.69
2027.3
2029.13
2031.11
2033.27
2035.58
2038.03
2040.61
2043.29
2046.09
2048.95
2051.86
2054.8
2057.72
2060.6
2063.33
2065.88
2068.23
2070.23
2071.8
2073.15
2074.21
2074.88
2075.16
2075.06
2074.54
2073.52
2071.96
2069.8
2067.16
2064.05
2060.41
2056.24
2051.47
2046.2
2040.46
2034.27
2027.57
2020.35
2012.5
2003.91
1994.26
1983.16
1971.65
1959.34
1945.88
1930.96
1914.18
1895.01
1872.58
1845.45
1810.81
1761.76
1674.51
2023.04
2023.3
2023.79
2024.5
2025.45
2026.67
2028.09
2029.69
2031.48
2033.45
2035.59
2037.9
2040.36
2042.94
2045.66
2048.5
2051.4
2054.36
2057.32
2060.28
2063.17
2065.95
2068.53
2070.9
2072.92
2074.49
2075.86
2076.92
2077.62
2077.9
2077.8
2077.25
2076.22
2074.64
2072.51
2069.9
2066.77
2063.13
2058.96
2054.2
2048.92
2043.19
2037.03
2030.32
2023.1
2015.31
2006.79
1997.26
1986.32
1974.9
1962.58
1949.02
1933.98
1917.13
1897.9
1875.43
1848.25
1813.62
1764.7
1677.77
2025.34
2025.62
2026.15
2026.87
2027.79
2028.94
2030.33
2031.92
2033.7
2035.7
2037.88
2040.22
2042.7
2045.34
2048.1
2050.96
2053.9
2056.88
2059.89
2062.89
2065.81
2068.61
2071.23
2073.59
2075.63
2077.22
2078.56
2079.62
2080.33
2080.63
2080.52
2079.95
2078.92
2077.36
2075.22
2072.6
2069.44
2065.79
2061.57
2056.82
2051.55
2045.84
2039.66
2032.99
2025.74
2017.96
2009.54
2000.17
1989.42
1978.1
1965.75
1952.02
1936.84
1919.91
1900.65
1878.13
1850.88
1816.23
1767.5
1681.14
2027.63
2027.86
2028.34
2029.03
2029.95
2031.11
2032.5
2034.1
2035.92
2037.94
2040.13
2042.51
2045.03
2047.7
2050.51
2053.42
2056.39
2059.43
2062.49
2065.51
2068.45
2071.25
2073.88
2076.28
2078.37
2080.08
2081.31
2082.33
2082.99
2083.29
2083.19
2082.6
2081.57
2080.03
2077.9
2075.28
2072.11
2068.42
2064.17
2059.36
2054.08
2048.33
2042.12
2035.44
2028.21
2020.49
2012.13
2002.96
1992.5
1981.34
1968.92
1954.88
1939.53
1922.54
1903.24
1880.68
1853.3
1818.59
1770.02
1684.63
2029.71
2029.95
2030.43
2031.12
2032.07
2033.23
2034.64
2036.27
2038.11
2040.17
2042.39
2044.8
2047.37
2050.1
2052.96
2055.92
2058.92
2061.97
2065.03
2068.07
2071.01
2073.81
2076.44
2078.86
2080.97
2082.72
2083.97
2084.99
2085.68
2086
2085.93
2085.27
2084.15
2082.59
2080.53
2077.91
2074.73
2071.01
2066.71
2061.84
2056.55
2050.75
2044.49
2037.74
2030.55
2022.85
2014.57
2005.57
1995.69
1984.69
1972.19
1957.54
1942.08
1925.09
1905.76
1883.08
1855.63
1820.8
1772.34
1688.46
2031.75
2031.99
2032.49
2033.19
2034.17
2035.36
2036.78
2038.42
2040.28
2042.36
2044.65
2047.1
2049.73
2052.52
2055.42
2058.43
2061.47
2064.55
2067.6
2070.66
2073.61
2076.41
2079.04
2081.43
2083.53
2085.3
2086.6
2087.64
2088.33
2088.66
2088.55
2087.88
2086.75
2085.18
2083.1
2080.44
2077.25
2073.51
2069.18
2064.32
2058.98
2053.13
2046.81
2040
2032.77
2025.02
2016.69
2007.62
1997.66
1986.52
1973.84
1959.37
1944.1
1927.24
1907.97
1885.3
1857.79
1822.88
1774.3
1690.32
2033.77
2034.04
2034.54
2035.28
2036.27
2037.48
2038.9
2040.56
2042.47
2044.61
2046.94
2049.44
2052.09
2054.95
2057.92
2060.99
2064.09
2067.18
2070.26
2073.31
2076.23
2079.04
2081.64
2083.96
2086.04
2087.79
2089.23
2090.29
2090.95
2091.27
2091.17
2090.49
2089.36
2087.77
2085.67
2082.99
2079.77
2075.99
2071.63
2066.77
2061.38
2055.49
2049.1
2042.25
2034.95
2027.14
2018.72
2009.58
1999.51
1988.17
1974.98
1961.09
1946.07
1929.33
1910.13
1887.46
1859.91
1824.9
1776.21
1692.13
2036.13
2036.39
2036.89
2037.65
2038.66
2039.88
2041.32
2043.01
2044.94
2047.08
2049.42
2051.93
2054.64
2057.51
2060.48
2063.58
2066.7
2069.82
2072.94
2076
2078.95
2081.75
2084.33
2086.64
2088.69
2090.44
2091.85
2092.9
2093.56
2093.89
2093.79
2093.08
2091.93
2090.33
2088.18
2085.5
2082.24
2078.45
2074.08
2069.17
2063.74
2057.8
2051.37
2044.46
2037.09
2029.2
2020.73
2011.53
2001.41
1990.03
1976.81
1962.99
1948.07
1931.42
1912.26
1889.59
1861.98
1826.86
1778.04
1693.87
2038.67
2038.9
2039.39
2040.14
2041.15
2042.39
2043.84
2045.55
2047.45
2049.59
2051.94
2054.48
2057.19
2060.06
2063.07
2066.16
2069.31
2072.47
2075.6
2078.68
2081.63
2084.45
2087.05
2089.37
2091.42
2093.16
2094.56
2095.61
2096.25
2096.51
2096.36
2095.68
2094.48
2092.83
2090.65
2087.95
2084.68
2080.88
2076.53
2071.61
2066.05
2060.03
2053.54
2046.59
2039.15
2031.22
2022.68
2013.42
2003.23
1991.81
1978.63
1964.9
1950.08
1933.51
1914.4
1891.72
1864.05
1828.82
1779.85
1695.58
2041.24
2041.48
2041.97
2042.71
2043.69
2044.93
2046.39
2048.1
2050.03
2052.17
2054.52
2057.07
2059.79
2062.69
2065.72
2068.81
2071.96
2075.14
2078.28
2081.37
2084.35
2087.16
2089.77
2092.08
2094.12
2095.88
2097.28
2098.31
2098.92
2099.12
2098.88
2098.2
2096.97
2095.31
2093.11
2090.37
2087.06
2083.18
2078.84
2073.89
2068.25
2062.18
2055.68
2048.66
2041.2
2033.21
2024.58
2015.24
2004.95
1993.43
1980.38
1966.79
1952.1
1935.62
1916.54
1893.86
1866.12
1830.76
1781.63
1697.26
2043.81
2044.05
2044.53
2045.27
2046.25
2047.46
2048.94
2050.66
2052.59
2054.75
2057.13
2059.68
2062.42
2065.33
2068.36
2071.45
2074.58
2077.76
2080.92
2084.03
2087.02
2089.87
2092.49
2094.81
2096.87
2098.63
2100.05
2101.06
2101.64
2101.78
2101.51
2100.76
2099.51
2097.79
2095.53
2092.73
2089.38
2085.51
2081.1
2076.13
2070.47
2064.37
2057.83
2050.78
2043.22
2035.17
2026.46
2017
2006.54
1994.63
1982.03
1968.68
1954.13
1937.75
1918.72
1896.03
1868.22
1832.72
1783.42
1698.92
2046.36
2046.6
2047.07
2047.79
2048.78
2050.02
2051.49
2053.18
2055.14
2057.32
2059.69
2062.27
2065.01
2067.92
2070.97
2074.09
2077.24
2080.42
2083.6
2086.7
2089.72
2092.56
2095.18
2097.5
2099.55
2101.33
2102.78
2103.81
2104.41
2104.47
2104.13
2103.33
2102.01
2100.22
2097.92
2095.09
2091.72
2087.84
2083.38
2078.39
2072.72