/*--------------------------------*- C++ -*----------------------------------*\
| =========                 |                                                 |
| \\      /  F ield         | OpenFOAM: The Open Source CFD Toolbox           |
|  \\    /   O peration     | Version:  v1906                                 |
|   \\  /    A nd           | Web:      www.OpenFOAM.com                      |
|    \\/     M anipulation  |                                                 |
\*---------------------------------------------------------------------------*/
FoamFile
{
    version     2.0;
    format      ascii;
    class       volVectorField;
    location    "2.83";
    object      U;
}
// * * * * * * * * * * * * * * * * * * * * * * * * * * * * * * * * * * * * * //

dimensions      [0 1 -1 0 0 0 0];


internalField   nonuniform List<vector> 
26400
(
(-0.000252463 -31.7273 0)
(-0.000767558 -31.725 0)
(-0.00126771 -31.7223 0)
(-0.00176144 -31.7193 0)
(-0.00225458 -31.7161 0)
(-0.00274999 -31.7127 0)
(-0.00325232 -31.709 0)
(-0.00376308 -31.705 0)
(-0.00427248 -31.7005 0)
(-0.00478186 -31.6954 0)
(-0.00529976 -31.6896 0)
(-0.00582369 -31.6829 0)
(-0.00633653 -31.6753 0)
(-0.00683834 -31.6667 0)
(-0.00734891 -31.6571 0)
(-0.00787227 -31.6464 0)
(-0.00839433 -31.6345 0)
(-0.00890448 -31.6214 0)
(-0.00941285 -31.6071 0)
(-0.00990243 -31.5915 0)
(-0.0103648 -31.5745 0)
(-0.010811 -31.5562 0)
(-0.0112654 -31.5364 0)
(-0.0117019 -31.515 0)
(-0.0121597 -31.4919 0)
(-0.0126102 -31.4671 0)
(-0.0128689 -31.4405 0)
(-0.0135494 -31.4119 0)
(-0.0135931 -31.3811 0)
(-0.014193 -31.3482 0)
(-0.0145151 -31.3127 0)
(-0.0145382 -31.2747 0)
(-0.0151703 -31.2339 0)
(-0.0151275 -31.19 0)
(-0.0155387 -31.1427 0)
(-0.015723 -31.0919 0)
(-0.0159098 -31.037 0)
(-0.0160836 -30.9777 0)
(-0.0161958 -30.9134 0)
(-0.0162678 -30.8437 0)
(-0.0162833 -30.7676 0)
(-0.0162517 -30.6845 0)
(-0.0161473 -30.5931 0)
(-0.015944 -30.492 0)
(-0.0156213 -30.3795 0)
(-0.0151495 -30.2532 0)
(-0.0144639 -30.11 0)
(-0.0135103 -29.9457 0)
(-0.0122315 -29.7544 0)
(-0.0104435 -29.5282 0)
(-0.00796456 -29.2554 0)
(-0.00476479 -28.9193 0)
(-0.000878754 -28.4958 0)
(0.00372299 -27.95 0)
(0.00884584 -27.2333 0)
(0.0138471 -26.2816 0)
(0.017394 -25.0095 0)
(0.0186338 -23.282 0)
(0.0142806 -20.7948 0)
(0.00827774 -16.3644 0)
(-0.000600305 -31.728 0)
(-0.00179342 -31.7259 0)
(-0.00298149 -31.7233 0)
(-0.00414231 -31.7204 0)
(-0.00527103 -31.7172 0)
(-0.00638594 -31.7138 0)
(-0.00748304 -31.7101 0)
(-0.00856328 -31.706 0)
(-0.00963725 -31.7015 0)
(-0.0107019 -31.6964 0)
(-0.0117566 -31.6905 0)
(-0.0128104 -31.6839 0)
(-0.0138705 -31.6764 0)
(-0.0149261 -31.6679 0)
(-0.0159632 -31.6583 0)
(-0.0169699 -31.6476 0)
(-0.0179451 -31.6358 0)
(-0.0188953 -31.6228 0)
(-0.0198231 -31.6086 0)
(-0.0207491 -31.5931 0)
(-0.0216796 -31.5762 0)
(-0.022579 -31.5578 0)
(-0.0234388 -31.538 0)
(-0.0242533 -31.5166 0)
(-0.0250143 -31.4935 0)
(-0.0257468 -31.4686 0)
(-0.0263934 -31.4419 0)
(-0.0270678 -31.4131 0)
(-0.027637 -31.3822 0)
(-0.0282207 -31.3491 0)
(-0.0287368 -31.3134 0)
(-0.0291613 -31.2752 0)
(-0.0295844 -31.234 0)
(-0.0298708 -31.1897 0)
(-0.0301603 -31.1421 0)
(-0.0303367 -31.0909 0)
(-0.0304461 -31.0356 0)
(-0.0304747 -30.9758 0)
(-0.0304237 -30.9111 0)
(-0.0302581 -30.841 0)
(-0.0299714 -30.7646 0)
(-0.0295396 -30.6812 0)
(-0.0289408 -30.5897 0)
(-0.0281685 -30.4888 0)
(-0.02718 -30.3767 0)
(-0.0259198 -30.2514 0)
(-0.0243451 -30.11 0)
(-0.0223486 -29.9485 0)
(-0.0197501 -29.7617 0)
(-0.0164323 -29.5416 0)
(-0.0122391 -29.2773 0)
(-0.00710068 -28.9519 0)
(-0.00100213 -28.5405 0)
(0.00606095 -28.0067 0)
(0.0138465 -27.2981 0)
(0.0215326 -26.3436 0)
(0.0272648 -25.0497 0)
(0.0268019 -23.2807 0)
(0.0226131 -20.7439 0)
(0.0129976 -16.2718 0)
(-0.000766806 -31.7296 0)
(-0.00229755 -31.7275 0)
(-0.0038068 -31.725 0)
(-0.00530944 -31.7223 0)
(-0.00681502 -31.7192 0)
(-0.0083132 -31.716 0)
(-0.0098027 -31.7125 0)
(-0.0112827 -31.7087 0)
(-0.0127526 -31.7043 0)
(-0.0142143 -31.6994 0)
(-0.0156644 -31.6937 0)
(-0.0171025 -31.6872 0)
(-0.0185286 -31.6798 0)
(-0.019936 -31.6714 0)
(-0.0213083 -31.662 0)
(-0.0226559 -31.6515 0)
(-0.0239847 -31.6398 0)
(-0.025273 -31.6269 0)
(-0.0265137 -31.6128 0)
(-0.0276987 -31.5973 0)
(-0.0288214 -31.5805 0)
(-0.0298964 -31.5623 0)
(-0.0309367 -31.5425 0)
(-0.0319417 -31.5212 0)
(-0.032907 -31.4982 0)
(-0.0338242 -31.4734 0)
(-0.0346735 -31.4466 0)
(-0.0354569 -31.4179 0)
(-0.0361762 -31.387 0)
(-0.0367736 -31.3538 0)
(-0.0373033 -31.318 0)
(-0.0377693 -31.2797 0)
(-0.0381218 -31.2384 0)
(-0.038405 -31.194 0)
(-0.0385928 -31.1462 0)
(-0.038663 -31.0948 0)
(-0.0386376 -31.0393 0)
(-0.0384971 -30.9793 0)
(-0.0382154 -30.9144 0)
(-0.0377844 -30.8439 0)
(-0.0371931 -30.7673 0)
(-0.0364385 -30.6837 0)
(-0.0354971 -30.5921 0)
(-0.0343149 -30.4912 0)
(-0.0328632 -30.3795 0)
(-0.0311049 -30.2547 0)
(-0.028972 -30.1141 0)
(-0.0263931 -29.9538 0)
(-0.0232911 -29.7686 0)
(-0.0195697 -29.5508 0)
(-0.0151398 -29.2894 0)
(-0.0098902 -28.9678 0)
(-0.0036556 -28.5613 0)
(0.00369002 -28.0329 0)
(0.0119925 -27.3285 0)
(0.0203179 -26.3736 0)
(0.026593 -25.0706 0)
(0.0282149 -23.2814 0)
(0.0231795 -20.7193 0)
(0.0132867 -16.2263 0)
(-0.0010185 -31.7283 0)
(-0.0030535 -31.7264 0)
(-0.0050709 -31.724 0)
(-0.00707164 -31.7213 0)
(-0.0090617 -31.7183 0)
(-0.0110491 -31.7151 0)
(-0.0130385 -31.7116 0)
(-0.0150329 -31.7077 0)
(-0.0170311 -31.7035 0)
(-0.0190201 -31.6986 0)
(-0.0209883 -31.6931 0)
(-0.0229239 -31.6868 0)
(-0.024817 -31.6795 0)
(-0.0266737 -31.6714 0)
(-0.0284962 -31.6622 0)
(-0.0302713 -31.6519 0)
(-0.0319951 -31.6404 0)
(-0.0336757 -31.6278 0)
(-0.0353039 -31.6139 0)
(-0.0368742 -31.5987 0)
(-0.0383905 -31.5821 0)
(-0.0398444 -31.564 0)
(-0.0412202 -31.5445 0)
(-0.0425104 -31.5233 0)
(-0.0437373 -31.5005 0)
(-0.044851 -31.4758 0)
(-0.0458766 -31.4491 0)
(-0.0468297 -31.4205 0)
(-0.0476444 -31.3896 0)
(-0.0484385 -31.3564 0)
(-0.0491002 -31.3207 0)
(-0.0496104 -31.2822 0)
(-0.0500805 -31.2409 0)
(-0.0503555 -31.1964 0)
(-0.0505267 -31.1485 0)
(-0.0505793 -31.0969 0)
(-0.0504556 -31.0412 0)
(-0.0501744 -30.9811 0)
(-0.0497142 -30.9161 0)
(-0.0490815 -30.8456 0)
(-0.0482661 -30.769 0)
(-0.047243 -30.6855 0)
(-0.0459943 -30.5941 0)
(-0.0445054 -30.4936 0)
(-0.0427283 -30.3825 0)
(-0.0406155 -30.2587 0)
(-0.0381234 -30.1197 0)
(-0.0351671 -29.9617 0)
(-0.0316012 -29.7798 0)
(-0.0272802 -29.5668 0)
(-0.0221492 -29.312 0)
(-0.0161118 -28.9993 0)
(-0.00889153 -28.6042 0)
(-0.000171302 -28.0885 0)
(0.0101458 -27.3946 0)
(0.0209389 -26.4409 0)
(0.0294394 -25.1206 0)
(0.0322649 -23.2886 0)
(0.0276156 -20.6675 0)
(0.0163943 -16.1237 0)
(-0.00132089 -31.7242 0)
(-0.00395098 -31.7223 0)
(-0.00656111 -31.7201 0)
(-0.00915413 -31.7175 0)
(-0.0117379 -31.7147 0)
(-0.0143156 -31.7116 0)
(-0.0168865 -31.7083 0)
(-0.0194447 -31.7047 0)
(-0.0219771 -31.7006 0)
(-0.0244802 -31.696 0)
(-0.026951 -31.6908 0)
(-0.0293844 -31.6847 0)
(-0.0317815 -31.6778 0)
(-0.0341385 -31.6699 0)
(-0.0364526 -31.6611 0)
(-0.0387141 -31.6511 0)
(-0.0409112 -31.6401 0)
(-0.0430414 -31.6278 0)
(-0.0450984 -31.6143 0)
(-0.0470652 -31.5995 0)
(-0.0489329 -31.5833 0)
(-0.0506974 -31.5656 0)
(-0.0523635 -31.5464 0)
(-0.0539326 -31.5256 0)
(-0.0553844 -31.5031 0)
(-0.0567371 -31.4788 0)
(-0.0579743 -31.4525 0)
(-0.0590886 -31.4241 0)
(-0.0600621 -31.3935 0)
(-0.0609125 -31.3606 0)
(-0.0616204 -31.3251 0)
(-0.0621727 -31.2869 0)
(-0.0625758 -31.2457 0)
(-0.0628044 -31.2014 0)
(-0.0628503 -31.1536 0)
(-0.0627113 -31.1021 0)
(-0.0623952 -31.0465 0)
(-0.0618808 -30.9865 0)
(-0.0611733 -30.9215 0)
(-0.060253 -30.851 0)
(-0.0591058 -30.7745 0)
(-0.0577156 -30.6911 0)
(-0.056077 -30.5999 0)
(-0.0541652 -30.4996 0)
(-0.0519469 -30.3889 0)
(-0.049379 -30.2657 0)
(-0.0463887 -30.1274 0)
(-0.042911 -29.9707 0)
(-0.0388669 -29.7906 0)
(-0.0341503 -29.5802 0)
(-0.028682 -29.3291 0)
(-0.0223257 -29.0217 0)
(-0.0147507 -28.6337 0)
(-0.00545886 -28.127 0)
(0.00624257 -27.4424 0)
(0.0189724 -26.4928 0)
(0.02919 -25.1612 0)
(0.0338243 -23.2967 0)
(0.0297971 -20.629 0)
(0.0180492 -16.0353 0)
(-0.00167788 -31.7157 0)
(-0.00502995 -31.714 0)
(-0.00836926 -31.7119 0)
(-0.0116965 -31.7095 0)
(-0.0150296 -31.7068 0)
(-0.0183529 -31.7039 0)
(-0.0216437 -31.7008 0)
(-0.0248957 -31.6973 0)
(-0.0281165 -31.6935 0)
(-0.0313159 -31.6892 0)
(-0.0344942 -31.6843 0)
(-0.0376287 -31.6786 0)
(-0.0406923 -31.6721 0)
(-0.0436851 -31.6647 0)
(-0.0466113 -31.6563 0)
(-0.0494661 -31.6469 0)
(-0.0522297 -31.6363 0)
(-0.0548882 -31.6246 0)
(-0.0574385 -31.6116 0)
(-0.0598875 -31.5974 0)
(-0.0622329 -31.5817 0)
(-0.0644652 -31.5647 0)
(-0.0665624 -31.546 0)
(-0.0685092 -31.5258 0)
(-0.0702853 -31.5038 0)
(-0.0718984 -31.48 0)
(-0.0733974 -31.4543 0)
(-0.0746044 -31.4264 0)
(-0.0758659 -31.3964 0)
(-0.0767364 -31.3639 0)
(-0.0775113 -31.3289 0)
(-0.0781895 -31.2911 0)
(-0.0784372 -31.2503 0)
(-0.0787011 -31.2064 0)
(-0.0785964 -31.1589 0)
(-0.0783065 -31.1078 0)
(-0.077785 -31.0525 0)
(-0.0770333 -30.9927 0)
(-0.0760289 -30.928 0)
(-0.07475 -30.8578 0)
(-0.0731949 -30.7816 0)
(-0.0713622 -30.6985 0)
(-0.0692278 -30.6076 0)
(-0.0667749 -30.5079 0)
(-0.063991 -30.3978 0)
(-0.0608316 -30.2756 0)
(-0.0572327 -30.1388 0)
(-0.0531037 -29.984 0)
(-0.0483455 -29.8068 0)
(-0.0429226 -29.6006 0)
(-0.0367679 -29.3555 0)
(-0.0296495 -29.0565 0)
(-0.021204 -28.6799 0)
(-0.010908 -28.1875 0)
(0.00173266 -27.5179 0)
(0.0157263 -26.577 0)
(0.0282747 -25.2335 0)
(0.0352372 -23.3235 0)
(0.0327693 -20.5805 0)
(0.0203204 -15.9084 0)
(-0.0021372 -31.7023 0)
(-0.00642245 -31.7007 0)
(-0.0106953 -31.6987 0)
(-0.0149353 -31.6965 0)
(-0.0191419 -31.6941 0)
(-0.0233265 -31.6915 0)
(-0.0275069 -31.6886 0)
(-0.031683 -31.6855 0)
(-0.0358386 -31.6821 0)
(-0.0399514 -31.6782 0)
(-0.0439981 -31.6738 0)
(-0.0479705 -31.6686 0)
(-0.05187 -31.6627 0)
(-0.0556819 -31.6559 0)
(-0.0593872 -31.6482 0)
(-0.0629814 -31.6394 0)
(-0.0664708 -31.6296 0)
(-0.0698425 -31.6186 0)
(-0.0730759 -31.6064 0)
(-0.0761544 -31.5929 0)
(-0.0790648 -31.5781 0)
(-0.0818062 -31.5618 0)
(-0.0843779 -31.544 0)
(-0.08677 -31.5246 0)
(-0.0889907 -31.5035 0)
(-0.091008 -31.4805 0)
(-0.0927602 -31.4556 0)
(-0.0944531 -31.4286 0)
(-0.0956138 -31.3993 0)
(-0.0968443 -31.3676 0)
(-0.097714 -31.3334 0)
(-0.0981889 -31.2964 0)
(-0.0987124 -31.2564 0)
(-0.0986405 -31.2131 0)
(-0.0984883 -31.1664 0)
(-0.0980086 -31.1159 0)
(-0.0972112 -31.0612 0)
(-0.0960699 -31.002 0)
(-0.0946028 -30.9379 0)
(-0.0928407 -30.8683 0)
(-0.0907626 -30.7926 0)
(-0.0883512 -30.7101 0)
(-0.0855942 -30.6198 0)
(-0.082478 -30.5207 0)
(-0.0789858 -30.4113 0)
(-0.0750668 -30.2898 0)
(-0.0706682 -30.154 0)
(-0.0657424 -30.0006 0)
(-0.060225 -29.8253 0)
(-0.0540481 -29.6217 0)
(-0.0471097 -29.3805 0)
(-0.0391922 -29.0875 0)
(-0.0299755 -28.7195 0)
(-0.0190846 -28.2393 0)
(-0.00624078 -27.5847 0)
(0.00839247 -26.656 0)
(0.0231441 -25.3076 0)
(0.0333652 -23.3554 0)
(0.033783 -20.5356 0)
(0.0219095 -15.7848 0)
(-0.00274288 -31.6819 0)
(-0.00822981 -31.6804 0)
(-0.0137004 -31.6787 0)
(-0.0191661 -31.6767 0)
(-0.0246177 -31.6746 0)
(-0.0300501 -31.6723 0)
(-0.0354518 -31.6698 0)
(-0.0408056 -31.6672 0)
(-0.0460991 -31.6643 0)
(-0.0513267 -31.661 0)
(-0.0564813 -31.6572 0)
(-0.0615529 -31.6527 0)
(-0.0665236 -31.6476 0)
(-0.0713735 -31.6416 0)
(-0.0760949 -31.6347 0)
(-0.0806734 -31.6269 0)
(-0.085088 -31.618 0)
(-0.0893291 -31.608 0)
(-0.0933923 -31.5968 0)
(-0.0972647 -31.5845 0)
(-0.100932 -31.5707 0)
(-0.104382 -31.5556 0)
(-0.10761 -31.539 0)
(-0.11061 -31.5207 0)
(-0.11335 -31.5008 0)
(-0.115829 -31.479 0)
(-0.118079 -31.4553 0)
(-0.119909 -31.4295 0)
(-0.121714 -31.4014 0)
(-0.122918 -31.371 0)
(-0.123903 -31.3379 0)
(-0.124686 -31.302 0)
(-0.124843 -31.2631 0)
(-0.124956 -31.221 0)
(-0.124561 -31.1754 0)
(-0.123831 -31.1259 0)
(-0.122727 -31.0722 0)
(-0.121248 -31.0141 0)
(-0.119395 -30.9509 0)
(-0.117161 -30.8822 0)
(-0.114527 -30.8073 0)
(-0.111487 -30.7257 0)
(-0.108022 -30.6363 0)
(-0.104109 -30.5381 0)
(-0.0997273 -30.4297 0)
(-0.0948756 -30.3095 0)
(-0.0895313 -30.1752 0)
(-0.0836336 -30.0237 0)
(-0.0771185 -29.851 0)
(-0.0699226 -29.6511 0)
(-0.0619199 -29.4152 0)
(-0.0528666 -29.1297 0)
(-0.0424279 -28.7728 0)
(-0.0301754 -28.3081 0)
(-0.0157115 -27.6733 0)
(0.00101981 -26.7636 0)
(0.018733 -25.4164 0)
(0.0329301 -23.4198 0)
(0.0359063 -20.5007 0)
(0.0249747 -15.6353 0)
(-0.00356986 -31.6532 0)
(-0.0106875 -31.6519 0)
(-0.017806 -31.6504 0)
(-0.0248907 -31.6487 0)
(-0.0319245 -31.6469 0)
(-0.0388948 -31.6451 0)
(-0.0457992 -31.6432 0)
(-0.0526422 -31.6411 0)
(-0.0594227 -31.6389 0)
(-0.0661206 -31.6363 0)
(-0.0727148 -31.6333 0)
(-0.079196 -31.6298 0)
(-0.085552 -31.6256 0)
(-0.0917761 -31.6207 0)
(-0.0978465 -31.615 0)
(-0.103731 -31.6083 0)
(-0.109398 -31.6007 0)
(-0.114836 -31.5921 0)
(-0.120026 -31.5823 0)
(-0.124957 -31.5713 0)
(-0.129624 -31.559 0)
(-0.134021 -31.5454 0)
(-0.138116 -31.5304 0)
(-0.141896 -31.5137 0)
(-0.145345 -31.4954 0)
(-0.148485 -31.4752 0)
(-0.151205 -31.4532 0)
(-0.153726 -31.429 0)
(-0.155563 -31.4026 0)
(-0.157292 -31.3738 0)
(-0.158519 -31.3424 0)
(-0.159209 -31.3082 0)
(-0.159767 -31.271 0)
(-0.159575 -31.2305 0)
(-0.159106 -31.1865 0)
(-0.158104 -31.1386 0)
(-0.156644 -31.0864 0)
(-0.154708 -31.0297 0)
(-0.152295 -30.968 0)
(-0.149402 -30.9007 0)
(-0.146015 -30.8271 0)
(-0.142128 -30.7467 0)
(-0.137746 -30.6585 0)
(-0.132863 -30.5614 0)
(-0.127453 -30.4542 0)
(-0.121491 -30.3351 0)
(-0.114948 -30.2021 0)
(-0.107778 -30.0521 0)
(-0.0999798 -29.8812 0)
(-0.0915173 -29.6838 0)
(-0.0822331 -29.4516 0)
(-0.0718701 -29.1717 0)
(-0.0600531 -28.8235 0)
(-0.0462763 -28.372 0)
(-0.0301605 -27.7562 0)
(-0.0115156 -26.8688 0)
(0.00905785 -25.5323 0)
(0.0274788 -23.5015 0)
(0.0338778 -20.4828 0)
(0.0242504 -15.4701 0)
(-0.00463294 -31.6133 0)
(-0.0138853 -31.6121 0)
(-0.0231113 -31.6108 0)
(-0.0322768 -31.6095 0)
(-0.041374 -31.6082 0)
(-0.0504031 -31.6069 0)
(-0.0593581 -31.6056 0)
(-0.068229 -31.6043 0)
(-0.0769907 -31.6029 0)
(-0.085633 -31.6013 0)
(-0.094153 -31.5994 0)
(-0.10251 -31.5971 0)
(-0.110672 -31.5942 0)
(-0.118617 -31.5906 0)
(-0.126323 -31.5863 0)
(-0.133787 -31.5812 0)
(-0.14101 -31.5753 0)
(-0.14796 -31.5683 0)
(-0.154618 -31.5603 0)
(-0.160968 -31.5512 0)
(-0.166969 -31.5409 0)
(-0.172603 -31.5293 0)
(-0.177858 -31.5162 0)
(-0.182712 -31.5017 0)
(-0.187164 -31.4855 0)
(-0.191158 -31.4676 0)
(-0.194755 -31.4478 0)
(-0.197792 -31.4259 0)
(-0.200504 -31.4018 0)
(-0.202577 -31.3753 0)
(-0.20417 -31.3462 0)
(-0.205284 -31.3143 0)
(-0.205703 -31.2794 0)
(-0.205722 -31.2411 0)
(-0.205068 -31.1993 0)
(-0.203881 -31.1536 0)
(-0.202072 -31.1037 0)
(-0.199656 -31.0491 0)
(-0.196604 -30.9894 0)
(-0.192928 -30.924 0)
(-0.188641 -30.8524 0)
(-0.183752 -30.7738 0)
(-0.17826 -30.6874 0)
(-0.17216 -30.5921 0)
(-0.165449 -30.4866 0)
(-0.15812 -30.3692 0)
(-0.150143 -30.238 0)
(-0.141456 -30.0901 0)
(-0.132061 -29.9217 0)
(-0.121931 -29.7276 0)
(-0.110926 -29.4999 0)
(-0.0987899 -29.2265 0)
(-0.0850387 -28.888 0)
(-0.0689962 -28.4514 0)
(-0.0505012 -27.8575 0)
(-0.0294735 -26.9978 0)
(-0.00561498 -25.6805 0)
(0.0175771 -23.6191 0)
(0.0301603 -20.4797 0)
(0.0227842 -15.3192 0)
(-0.00600381 -31.5592 0)
(-0.0180171 -31.5582 0)
(-0.0299795 -31.5573 0)
(-0.0418646 -31.5564 0)
(-0.0536731 -31.5556 0)
(-0.0653885 -31.555 0)
(-0.0769892 -31.5545 0)
(-0.0884365 -31.5541 0)
(-0.0997173 -31.5538 0)
(-0.11083 -31.5533 0)
(-0.121761 -31.5527 0)
(-0.132506 -31.5518 0)
(-0.143044 -31.5505 0)
(-0.153331 -31.5487 0)
(-0.16333 -31.5462 0)
(-0.173017 -31.5431 0)
(-0.182372 -31.5392 0)
(-0.191372 -31.5345 0)
(-0.199992 -31.5288 0)
(-0.208215 -31.5221 0)
(-0.216014 -31.5142 0)
(-0.223349 -31.5052 0)
(-0.230201 -31.4948 0)
(-0.236538 -31.4831 0)
(-0.242338 -31.4697 0)
(-0.247616 -31.4547 0)
(-0.252278 -31.4379 0)
(-0.256366 -31.419 0)
(-0.259786 -31.398 0)
(-0.262616 -31.3746 0)
(-0.264773 -31.3486 0)
(-0.266236 -31.3199 0)
(-0.267038 -31.2881 0)
(-0.267084 -31.253 0)
(-0.266431 -31.2144 0)
(-0.265014 -31.1718 0)
(-0.262856 -31.1249 0)
(-0.259897 -31.0733 0)
(-0.25617 -31.0165 0)
(-0.251668 -30.9539 0)
(-0.246374 -30.885 0)
(-0.24028 -30.809 0)
(-0.233416 -30.725 0)
(-0.225777 -30.632 0)
(-0.217382 -30.5287 0)
(-0.208229 -30.4135 0)
(-0.198321 -30.2843 0)
(-0.187692 -30.1384 0)
(-0.176301 -29.9722 0)
(-0.164083 -29.7807 0)
(-0.15095 -29.5564 0)
(-0.136705 -29.2879 0)
(-0.120967 -28.9573 0)
(-0.103215 -28.5333 0)
(-0.0831686 -27.9598 0)
(-0.060204 -27.1301 0)
(-0.0330813 -25.8439 0)
(-0.00348346 -23.7717 0)
(0.0161716 -20.5133 0)
(0.017617 -15.187 0)
(-0.00773001 -31.4858 0)
(-0.023194 -31.485 0)
(-0.0386025 -31.4845 0)
(-0.0539375 -31.4841 0)
(-0.0691743 -31.484 0)
(-0.0842859 -31.4842 0)
(-0.0992501 -31.4848 0)
(-0.114054 -31.4855 0)
(-0.128682 -31.4865 0)
(-0.143105 -31.4876 0)
(-0.157286 -31.4886 0)
(-0.171194 -31.4896 0)
(-0.184814 -31.4902 0)
(-0.198133 -31.4906 0)
(-0.211108 -31.4904 0)
(-0.223693 -31.4898 0)
(-0.235861 -31.4885 0)
(-0.247584 -31.4865 0)
(-0.258827 -31.4837 0)
(-0.269554 -31.48 0)
(-0.279743 -31.4754 0)
(-0.289383 -31.4697 0)
(-0.298436 -31.4628 0)
(-0.306838 -31.4545 0)
(-0.31457 -31.4448 0)
(-0.321583 -31.4336 0)
(-0.327863 -31.4206 0)
(-0.333457 -31.4057 0)
(-0.33822 -31.3887 0)
(-0.342201 -31.3694 0)
(-0.345302 -31.3476 0)
(-0.347495 -31.3231 0)
(-0.34885 -31.2956 0)
(-0.349238 -31.2648 0)
(-0.348748 -31.2304 0)
(-0.347285 -31.1921 0)
(-0.34482 -31.1494 0)
(-0.341335 -31.1019 0)
(-0.33682 -31.0492 0)
(-0.331271 -30.9906 0)
(-0.324723 -30.9256 0)
(-0.317177 -30.8533 0)
(-0.308641 -30.7728 0)
(-0.299117 -30.6832 0)
(-0.288633 -30.583 0)
(-0.2772 -30.4708 0)
(-0.264832 -30.3445 0)
(-0.251533 -30.2015 0)
(-0.237313 -30.0382 0)
(-0.222167 -29.85 0)
(-0.206026 -29.6297 0)
(-0.188699 -29.3667 0)
(-0.169944 -29.0441 0)
(-0.149522 -28.6327 0)
(-0.126894 -28.0792 0)
(-0.100616 -27.2803 0)
(-0.0689537 -26.0318 0)
(-0.0334563 -23.9667 0)
(-0.00108509 -20.6032 0)
(0.00981611 -15.1282 0)
(-0.00993291 -31.389 0)
(-0.0297831 -31.3884 0)
(-0.0496339 -31.3883 0)
(-0.0693968 -31.3886 0)
(-0.0890374 -31.3894 0)
(-0.108532 -31.3906 0)
(-0.127861 -31.3923 0)
(-0.146986 -31.3946 0)
(-0.165873 -31.3972 0)
(-0.184483 -31.4001 0)
(-0.202813 -31.4031 0)
(-0.22082 -31.4063 0)
(-0.238466 -31.4094 0)
(-0.255714 -31.4124 0)
(-0.272539 -31.4151 0)
(-0.288921 -31.4174 0)
(-0.304807 -31.4194 0)
(-0.320159 -31.4208 0)
(-0.334947 -31.4216 0)
(-0.349104 -31.4217 0)
(-0.362584 -31.4211 0)
(-0.375345 -31.4195 0)
(-0.387349 -31.4169 0)
(-0.398573 -31.4131 0)
(-0.408986 -31.4081 0)
(-0.418557 -31.4017 0)
(-0.427211 -31.3936 0)
(-0.434918 -31.3838 0)
(-0.441595 -31.372 0)
(-0.447293 -31.3581 0)
(-0.451925 -31.3418 0)
(-0.455455 -31.3228 0)
(-0.457884 -31.3009 0)
(-0.459089 -31.2758 0)
(-0.459109 -31.2471 0)
(-0.457853 -31.2145 0)
(-0.455319 -31.1776 0)
(-0.451453 -31.1358 0)
(-0.446292 -31.0887 0)
(-0.439778 -31.0356 0)
(-0.431933 -30.9759 0)
(-0.42273 -30.9088 0)
(-0.412173 -30.8333 0)
(-0.400292 -30.7484 0)
(-0.387087 -30.6527 0)
(-0.372577 -30.5447 0)
(-0.356777 -30.4222 0)
(-0.339708 -30.2828 0)
(-0.321401 -30.1231 0)
(-0.301832 -29.9383 0)
(-0.280911 -29.7218 0)
(-0.258464 -29.4636 0)
(-0.234245 -29.148 0)
(-0.208266 -28.748 0)
(-0.180266 -28.2139 0)
(-0.148818 -27.447 0)
(-0.112592 -26.2443 0)
(-0.0738861 -24.2096 0)
(-0.0272399 -20.7579 0)
(-0.00476443 -15.1166 0)
(-0.0127076 -31.26 0)
(-0.0381215 -31.2597 0)
(-0.0634872 -31.2601 0)
(-0.0887446 -31.2612 0)
(-0.113873 -31.2629 0)
(-0.138847 -31.2654 0)
(-0.163624 -31.2685 0)
(-0.188172 -31.2724 0)
(-0.212456 -31.2769 0)
(-0.236436 -31.2819 0)
(-0.260057 -31.2874 0)
(-0.2833 -31.2932 0)
(-0.30615 -31.2992 0)
(-0.328549 -31.3052 0)
(-0.350436 -31.3113 0)
(-0.371772 -31.3173 0)
(-0.392507 -31.3231 0)
(-0.412595 -31.3286 0)
(-0.431986 -31.3338 0)
(-0.450651 -31.3384 0)
(-0.468533 -31.3426 0)
(-0.485589 -31.3461 0)
(-0.50176 -31.3488 0)
(-0.516988 -31.3506 0)
(-0.531205 -31.3513 0)
(-0.544344 -31.3509 0)
(-0.556453 -31.349 0)
(-0.567216 -31.3457 0)
(-0.576974 -31.3406 0)
(-0.585239 -31.3335 0)
(-0.592267 -31.3243 0)
(-0.598009 -31.3126 0)
(-0.602097 -31.2981 0)
(-0.604939 -31.2806 0)
(-0.606063 -31.2597 0)
(-0.605674 -31.2349 0)
(-0.603605 -31.2059 0)
(-0.599811 -31.1721 0)
(-0.594285 -31.1331 0)
(-0.586984 -31.088 0)
(-0.577874 -31.0363 0)
(-0.566948 -30.9771 0)
(-0.554213 -30.9095 0)
(-0.53959 -30.8322 0)
(-0.523137 -30.744 0)
(-0.504817 -30.6433 0)
(-0.484643 -30.5279 0)
(-0.462623 -30.3955 0)
(-0.438773 -30.2427 0)
(-0.413083 -30.065 0)
(-0.385494 -29.856 0)
(-0.355854 -29.6065 0)
(-0.32398 -29.3016 0)
(-0.289896 -28.9163 0)
(-0.253322 -28.4045 0)
(-0.213296 -27.6735 0)
(-0.170003 -26.5256 0)
(-0.125983 -24.556 0)
(-0.0436269 -21.1027 0)
(-0.0462589 -15.4028 0)
(-0.0161288 -31.0951 0)
(-0.0483781 -31.0951 0)
(-0.0805585 -31.0961 0)
(-0.112631 -31.098 0)
(-0.144565 -31.1008 0)
(-0.176332 -31.1046 0)
(-0.207893 -31.1094 0)
(-0.239198 -31.1152 0)
(-0.270207 -31.1219 0)
(-0.300874 -31.1294 0)
(-0.331172 -31.1376 0)
(-0.361048 -31.1465 0)
(-0.390446 -31.1558 0)
(-0.419336 -31.1655 0)
(-0.447671 -31.1756 0)
(-0.475411 -31.1858 0)
(-0.502483 -31.1961 0)
(-0.528835 -31.2065 0)
(-0.554407 -31.2168 0)
(-0.579145 -31.227 0)
(-0.602999 -31.2369 0)
(-0.625906 -31.2465 0)
(-0.647777 -31.2556 0)
(-0.668557 -31.2641 0)
(-0.68818 -31.2719 0)
(-0.706569 -31.2788 0)
(-0.723638 -31.2846 0)
(-0.739397 -31.2892 0)
(-0.753625 -31.2924 0)
(-0.766382 -31.2939 0)
(-0.777505 -31.2936 0)
(-0.78691 -31.291 0)
(-0.794598 -31.2861 0)
(-0.800407 -31.2783 0)
(-0.80434 -31.2673 0)
(-0.806228 -31.2528 0)
(-0.806026 -31.2342 0)
(-0.803696 -31.2111 0)
(-0.799168 -31.1828 0)
(-0.792384 -31.1488 0)
(-0.783291 -31.1081 0)
(-0.771859 -31.06 0)
(-0.758045 -31.0034 0)
(-0.741758 -30.9372 0)
(-0.722981 -30.8599 0)
(-0.701721 -30.7699 0)
(-0.677993 -30.6652 0)
(-0.651833 -30.5433 0)
(-0.623289 -30.4009 0)
(-0.592401 -30.2336 0)
(-0.559186 -30.0356 0)
(-0.52364 -29.7979 0)
(-0.485753 -29.5068 0)
(-0.445332 -29.1391 0)
(-0.401809 -28.6519 0)
(-0.354505 -27.9587 0)
(-0.304148 -26.8684 0)
(-0.250728 -24.9757 0)
(-0.102601 -21.5943 0)
(-0.123514 -15.9592 0)
(-0.0202539 -30.8791 0)
(-0.0607955 -30.8795 0)
(-0.101316 -30.8811 0)
(-0.141702 -30.8839 0)
(-0.181932 -30.8879 0)
(-0.221979 -30.8931 0)
(-0.261804 -30.8996 0)
(-0.301373 -30.9073 0)
(-0.340657 -30.9162 0)
(-0.379581 -30.9263 0)
(-0.418115 -30.9374 0)
(-0.456196 -30.9494 0)
(-0.49379 -30.9623 0)
(-0.530869 -30.9759 0)
(-0.567368 -30.9901 0)
(-0.603258 -31.0048 0)
(-0.63846 -31.02 0)
(-0.672873 -31.0356 0)
(-0.706458 -31.0515 0)
(-0.739146 -31.0676 0)
(-0.770836 -31.0838 0)
(-0.801468 -31.1001 0)
(-0.83096 -31.1163 0)
(-0.859234 -31.1323 0)
(-0.886231 -31.148 0)
(-0.91185 -31.1633 0)
(-0.935929 -31.1779 0)
(-0.958567 -31.1917 0)
(-0.979356 -31.2045 0)
(-0.998482 -31.2162 0)
(-1.01566 -31.2264 0)
(-1.03081 -31.2348 0)
(-1.04398 -31.2413 0)
(-1.0548 -31.2454 0)
(-1.06342 -31.2468 0)
(-1.06952 -31.2451 0)
(-1.07306 -31.2398 0)
(-1.07401 -31.2303 0)
(-1.0722 -31.2159 0)
(-1.06758 -31.1961 0)
(-1.06002 -31.17 0)
(-1.0495 -31.1365 0)
(-1.03588 -31.0947 0)
(-1.01917 -31.0432 0)
(-0.999351 -30.9805 0)
(-0.976445 -30.9047 0)
(-0.950509 -30.8138 0)
(-0.921645 -30.705 0)
(-0.889993 -30.575 0)
(-0.855721 -30.4194 0)
(-0.819013 -30.2322 0)
(-0.780036 -30.005 0)
(-0.738916 -29.7249 0)
(-0.695451 -29.3705 0)
(-0.648534 -28.9029 0)
(-0.595857 -28.2429 0)
(-0.534644 -27.2135 0)
(-0.457408 -25.4302 0)
(-0.188067 -22.2022 0)
(-0.247183 -16.6587 0)
(-0.0250784 -30.6134 0)
(-0.0752117 -30.614 0)
(-0.125274 -30.6162 0)
(-0.175248 -30.6199 0)
(-0.225105 -30.6251 0)
(-0.27481 -30.6318 0)
(-0.324321 -30.6401 0)
(-0.373599 -30.65 0)
(-0.422626 -30.6614 0)
(-0.471353 -30.6742 0)
(-0.519737 -30.6884 0)
(-0.567721 -30.7039 0)
(-0.615259 -30.7206 0)
(-0.662296 -30.7383 0)
(-0.708758 -30.7571 0)
(-0.754591 -30.7768 0)
(-0.799742 -30.7974 0)
(-0.844185 -30.8188 0)
(-0.887828 -30.8409 0)
(-0.930592 -30.8636 0)
(-0.97242 -30.887 0)
(-1.01323 -30.9109 0)
(-1.05293 -30.9352 0)
(-1.09141 -30.9599 0)
(-1.12857 -30.9847 0)
(-1.16432 -31.0097 0)
(-1.19852 -31.0347 0)
(-1.23106 -31.0595 0)
(-1.26179 -31.0838 0)
(-1.29055 -31.1077 0)
(-1.31722 -31.1306 0)
(-1.34165 -31.1526 0)
(-1.36368 -31.1731 0)
(-1.38316 -31.192 0)
(-1.39986 -31.2089 0)
(-1.41363 -31.2232 0)
(-1.42426 -31.2345 0)
(-1.43158 -31.2422 0)
(-1.4354 -31.2456 0)
(-1.43555 -31.244 0)
(-1.43176 -31.2364 0)
(-1.42385 -31.2218 0)
(-1.41165 -31.1987 0)
(-1.39492 -31.1656 0)
(-1.37353 -31.1208 0)
(-1.34734 -31.0619 0)
(-1.31624 -30.9865 0)
(-1.28026 -30.8912 0)
(-1.23938 -30.7721 0)
(-1.19364 -30.6241 0)
(-1.14324 -30.4409 0)
(-1.08844 -30.2137 0)
(-1.02956 -29.93 0)
(-0.966412 -29.5702 0)
(-0.897064 -29.0994 0)
(-0.817429 -28.449 0)
(-0.725506 -27.4651 0)
(-0.62574 -25.8 0)
(-0.219448 -22.7611 0)
(-0.397216 -17.2376 0)
(-0.0305442 -30.2731 0)
(-0.0917226 -30.274 0)
(-0.152969 -30.2766 0)
(-0.214147 -30.2809 0)
(-0.275233 -30.2869 0)
(-0.336217 -30.2947 0)
(-0.397069 -30.3043 0)
(-0.457758 -30.3157 0)
(-0.518256 -30.3288 0)
(-0.578538 -30.3437 0)
(-0.638566 -30.3602 0)
(-0.698304 -30.3782 0)
(-0.757698 -30.3977 0)
(-0.816716 -30.4186 0)
(-0.875338 -30.4409 0)
(-0.933525 -30.4644 0)
(-0.991179 -30.4892 0)
(-1.04825 -30.5151 0)
(-1.10463 -30.5422 0)
(-1.16027 -30.5704 0)
(-1.21507 -30.5997 0)
(-1.26895 -30.63 0)
(-1.32181 -30.6613 0)
(-1.37354 -30.6934 0)
(-1.42405 -30.7264 0)
(-1.47319 -30.7601 0)
(-1.52084 -30.7945 0)
(-1.56678 -30.8294 0)
(-1.61093 -30.8647 0)
(-1.65305 -30.9004 0)
(-1.69294 -30.9362 0)
(-1.73041 -30.972 0)
(-1.76514 -31.0076 0)
(-1.79699 -31.0427 0)
(-1.82551 -31.0771 0)
(-1.85053 -31.1103 0)
(-1.87156 -31.1421 0)
(-1.88831 -31.1718 0)
(-1.90027 -31.1989 0)
(-1.90707 -31.2226 0)
(-1.90809 -31.242 0)
(-1.90279 -31.2562 0)
(-1.89056 -31.2638 0)
(-1.8707 -31.2632 0)
(-1.84237 -31.2525 0)
(-1.80497 -31.2294 0)
(-1.75747 -31.1909 0)
(-1.69922 -31.1335 0)
(-1.62935 -31.0527 0)
(-1.54721 -30.943 0)
(-1.45221 -30.7969 0)
(-1.34439 -30.6053 0)
(-1.22432 -30.3558 0)
(-1.09307 -30.0307 0)
(-0.952727 -29.6013 0)
(-0.810253 -29.0116 0)
(-0.689918 -28.1315 0)
(-0.635366 -26.6482 0)
(-0.145912 -23.9167 0)
(-0.634719 -18.4953 0)
(-0.0363214 -29.8752 0)
(-0.108913 -29.8762 0)
(-0.181431 -29.8792 0)
(-0.253914 -29.8841 0)
(-0.326387 -29.8909 0)
(-0.398841 -29.8997 0)
(-0.471276 -29.9105 0)
(-0.543679 -29.9233 0)
(-0.616049 -29.9382 0)
(-0.688346 -29.955 0)
(-0.760572 -29.9737 0)
(-0.832735 -29.9943 0)
(-0.904779 -30.0166 0)
(-0.976711 -30.0407 0)
(-1.04847 -30.0665 0)
(-1.12003 -30.094 0)
(-1.19138 -30.1231 0)
(-1.2625 -30.1539 0)
(-1.33333 -30.1863 0)
(-1.40383 -30.2205 0)
(-1.47395 -30.2562 0)
(-1.54361 -30.2935 0)
(-1.61277 -30.3325 0)
(-1.68126 -30.3733 0)
(-1.74905 -30.4157 0)
(-1.816 -30.4598 0)
(-1.88201 -30.5055 0)
(-1.94696 -30.553 0)
(-2.01065 -30.6021 0)
(-2.07299 -30.653 0)
(-2.13374 -30.7055 0)
(-2.19265 -30.7598 0)
(-2.24956 -30.8158 0)
(-2.30408 -30.8735 0)
(-2.35592 -30.9329 0)
(-2.40472 -30.9939 0)
(-2.44999 -31.0566 0)
(-2.49134 -31.1208 0)
(-2.52811 -31.1865 0)
(-2.55969 -31.2533 0)
(-2.5852 -31.3212 0)
(-2.60386 -31.3896 0)
(-2.61454 -31.4582 0)
(-2.61609 -31.5261 0)
(-2.60705 -31.5924 0)
(-2.58585 -31.6558 0)
(-2.5506 -31.7144 0)
(-2.49916 -31.7659 0)
(-2.42912 -31.8069 0)
(-2.33767 -31.8328 0)
(-2.22159 -31.8371 0)
(-2.07806 -31.8102 0)
(-1.90389 -31.7415 0)
(-1.69598 -31.6186 0)
(-1.45397 -31.4222 0)
(-1.18681 -31.1123 0)
(-0.922795 -30.5849 0)
(-0.651501 -29.579 0)
(0.190976 -27.6686 0)
(-0.91871 -23.3054 0)
(-0.0424553 -29.3844 0)
(-0.127535 -29.3853 0)
(-0.212798 -29.3881 0)
(-0.298099 -29.3928 0)
(-0.38345 -29.3993 0)
(-0.468901 -29.4077 0)
(-0.554485 -29.418 0)
(-0.640214 -29.4303 0)
(-0.726107 -29.4445 0)
(-0.812191 -29.4606 0)
(-0.898508 -29.4785 0)
(-0.98505 -29.4983 0)
(-1.07182 -29.5198 0)
(-1.15883 -29.543 0)
(-1.2461 -29.5678 0)
(-1.33365 -29.5942 0)
(-1.4215 -29.6223 0)
(-1.50963 -29.6521 0)
(-1.59809 -29.6834 0)
(-1.68685 -29.7165 0)
(-1.77594 -29.7512 0)
(-1.86534 -29.7876 0)
(-1.95507 -29.8257 0)
(-2.04512 -29.8657 0)
(-2.13547 -29.9075 0)
(-2.22615 -29.9512 0)
(-2.31714 -29.9969 0)
(-2.40839 -30.0446 0)
(-2.49998 -30.0944 0)
(-2.59175 -30.1465 0)
(-2.68382 -30.2009 0)
(-2.77615 -30.258 0)
(-2.86857 -30.3177 0)
(-2.96117 -30.3804 0)
(-3.0538 -30.4462 0)
(-3.14641 -30.5155 0)
(-3.239 -30.5886 0)
(-3.33138 -30.6657 0)
(-3.42346 -30.7475 0)
(-3.51519 -30.834 0)
(-3.60623 -30.926 0)
(-3.6964 -31.0239 0)
(-3.78543 -31.1281 0)
(-3.87295 -31.2391 0)
(-3.9584 -31.3574 0)
(-4.04128 -31.4834 0)
(-4.12073 -31.6171 0)
(-4.19583 -31.7585 0)
(-4.26506 -31.9063 0)
(-4.32514 -32.0586 0)
(-4.3708 -32.2114 0)
(-4.40912 -32.3583 0)
(-4.42656 -32.5086 0)
(-4.40916 -32.6718 0)
(-4.33677 -32.8523 0)
(-4.17738 -33.0471 0)
(-3.89916 -33.2093 0)
(-3.30689 -33.1753 0)
(-2.46086 -32.2725 0)
(-2.90939 -29.1135 0)
(-0.0475619 -28.8231 7.4323e-17)
(-0.14259 -28.8241 1.17872e-15)
(-0.237553 -28.8268 -3.56183e-15)
(-0.332613 -28.8314 4.1862e-16)
(-0.427825 -28.8378 2.061e-15)
(-0.523211 -28.846 -4.74782e-15)
(-0.618815 -28.8561 6.0657e-15)
(-0.7147 -28.868 8.92342e-16)
(-0.810915 -28.8819 -4.77362e-15)
(-0.907495 -28.8976 1.13305e-15)
(-1.00447 -28.9152 -5.03592e-15)
(-1.10193 -28.9346 -2.90794e-15)
(-1.19989 -28.9558 1.71498e-14)
(-1.29844 -28.9785 -9.16174e-15)
(-1.3976 -29.003 5.24403e-15)
(-1.49744 -29.0291 -6.82116e-15)
(-1.598 -29.0567 4.80649e-15)
(-1.69934 -29.086 -6.88831e-15)
(-1.80154 -29.1169 -6.92624e-15)
(-1.90465 -29.1495 4.88646e-15)
(-2.00875 -29.1836 5.41474e-15)
(-2.11396 -29.2195 -1.55656e-14)
(-2.22035 -29.2571 2.21269e-14)
(-2.32806 -29.2964 -2.44415e-14)
(-2.43719 -29.3374 1.83905e-14)
(-2.54787 -29.3802 9.78822e-16)
(-2.66028 -29.4248 -3.18739e-15)
(-2.77452 -29.4712 1.89272e-14)
(-2.89088 -29.5195 -2.13803e-14)
(-3.00949 -29.5697 1.50451e-14)
(-3.13061 -29.622 -7.92374e-15)
(-3.25454 -29.6763 1.98676e-14)
(-3.38148 -29.7327 1.06315e-15)
(-3.51189 -29.7913 -8.04277e-15)
(-3.64605 -29.8522 1.09738e-15)
(-3.78453 -29.9154 -8.32116e-15)
(-3.92785 -29.981 3.11861e-14)
(-4.07654 -30.0491 -3.93137e-14)
(-4.23129 -30.1198 3.25175e-14)
(-4.39283 -30.1932 -9.04605e-15)
(-4.56204 -30.2693 1.2446e-15)
(-4.7399 -30.3481 -9.52306e-15)
(-4.92748 -30.4297 1.31542e-15)